# vtk DataFile Version 2.0
Three-D cube surface heat flux and Q display
ASCII
DATASET UNSTRUCTURED_GRID

POINTS 602 FLOAT 
 -0.5 -0.5 -0.5
 -0.4 -0.5 -0.5
 -0.3 -0.5 -0.5
 -0.2 -0.5 -0.5
 -0.1 -0.5 -0.5
 0 -0.5 -0.5
 0.1 -0.5 -0.5
 0.2 -0.5 -0.5
 0.3 -0.5 -0.5
 0.4 -0.5 -0.5
 0.5 -0.5 -0.5
 -0.5 -0.4 -0.5
 -0.4 -0.4 -0.5
 -0.3 -0.4 -0.5
 -0.2 -0.4 -0.5
 -0.1 -0.4 -0.5
 0 -0.4 -0.5
 0.1 -0.4 -0.5
 0.2 -0.4 -0.5
 0.3 -0.4 -0.5
 0.4 -0.4 -0.5
 0.5 -0.4 -0.5
 -0.5 -0.3 -0.5
 -0.4 -0.3 -0.5
 -0.3 -0.3 -0.5
 -0.2 -0.3 -0.5
 -0.1 -0.3 -0.5
 0 -0.3 -0.5
 0.1 -0.3 -0.5
 0.2 -0.3 -0.5
 0.3 -0.3 -0.5
 0.4 -0.3 -0.5
 0.5 -0.3 -0.5
 -0.5 -0.2 -0.5
 -0.4 -0.2 -0.5
 -0.3 -0.2 -0.5
 -0.2 -0.2 -0.5
 -0.1 -0.2 -0.5
 0 -0.2 -0.5
 0.1 -0.2 -0.5
 0.2 -0.2 -0.5
 0.3 -0.2 -0.5
 0.4 -0.2 -0.5
 0.5 -0.2 -0.5
 -0.5 -0.1 -0.5
 -0.4 -0.1 -0.5
 -0.3 -0.1 -0.5
 -0.2 -0.1 -0.5
 -0.1 -0.1 -0.5
 0 -0.1 -0.5
 0.1 -0.1 -0.5
 0.2 -0.1 -0.5
 0.3 -0.1 -0.5
 0.4 -0.1 -0.5
 0.5 -0.1 -0.5
 -0.5 0 -0.5
 -0.4 0 -0.5
 -0.3 0 -0.5
 -0.2 0 -0.5
 -0.1 0 -0.5
 0 0 -0.5
 0.1 0 -0.5
 0.2 0 -0.5
 0.3 0 -0.5
 0.4 0 -0.5
 0.5 0 -0.5
 -0.5 0.1 -0.5
 -0.4 0.1 -0.5
 -0.3 0.1 -0.5
 -0.2 0.1 -0.5
 -0.1 0.1 -0.5
 0 0.1 -0.5
 0.1 0.1 -0.5
 0.2 0.1 -0.5
 0.3 0.1 -0.5
 0.4 0.1 -0.5
 0.5 0.1 -0.5
 -0.5 0.2 -0.5
 -0.4 0.2 -0.5
 -0.3 0.2 -0.5
 -0.2 0.2 -0.5
 -0.1 0.2 -0.5
 0 0.2 -0.5
 0.1 0.2 -0.5
 0.2 0.2 -0.5
 0.3 0.2 -0.5
 0.4 0.2 -0.5
 0.5 0.2 -0.5
 -0.5 0.3 -0.5
 -0.4 0.3 -0.5
 -0.3 0.3 -0.5
 -0.2 0.3 -0.5
 -0.1 0.3 -0.5
 0 0.3 -0.5
 0.1 0.3 -0.5
 0.2 0.3 -0.5
 0.3 0.3 -0.5
 0.4 0.3 -0.5
 0.5 0.3 -0.5
 -0.5 0.4 -0.5
 -0.4 0.4 -0.5
 -0.3 0.4 -0.5
 -0.2 0.4 -0.5
 -0.1 0.4 -0.5
 0 0.4 -0.5
 0.1 0.4 -0.5
 0.2 0.4 -0.5
 0.3 0.4 -0.5
 0.4 0.4 -0.5
 0.5 0.4 -0.5
 -0.5 0.5 -0.5
 -0.4 0.5 -0.5
 -0.3 0.5 -0.5
 -0.2 0.5 -0.5
 -0.1 0.5 -0.5
 0 0.5 -0.5
 0.1 0.5 -0.5
 0.2 0.5 -0.5
 0.3 0.5 -0.5
 0.4 0.5 -0.5
 0.5 0.5 -0.5
 -0.5 -0.5 0.5
 -0.4 -0.5 0.5
 -0.3 -0.5 0.5
 -0.2 -0.5 0.5
 -0.1 -0.5 0.5
 0 -0.5 0.5
 0.1 -0.5 0.5
 0.2 -0.5 0.5
 0.3 -0.5 0.5
 0.4 -0.5 0.5
 0.5 -0.5 0.5
 -0.5 -0.4 0.5
 -0.4 -0.4 0.5
 -0.3 -0.4 0.5
 -0.2 -0.4 0.5
 -0.1 -0.4 0.5
 0 -0.4 0.5
 0.1 -0.4 0.5
 0.2 -0.4 0.5
 0.3 -0.4 0.5
 0.4 -0.4 0.5
 0.5 -0.4 0.5
 -0.5 -0.3 0.5
 -0.4 -0.3 0.5
 -0.3 -0.3 0.5
 -0.2 -0.3 0.5
 -0.1 -0.3 0.5
 0 -0.3 0.5
 0.1 -0.3 0.5
 0.2 -0.3 0.5
 0.3 -0.3 0.5
 0.4 -0.3 0.5
 0.5 -0.3 0.5
 -0.5 -0.2 0.5
 -0.4 -0.2 0.5
 -0.3 -0.2 0.5
 -0.2 -0.2 0.5
 -0.1 -0.2 0.5
 0 -0.2 0.5
 0.1 -0.2 0.5
 0.2 -0.2 0.5
 0.3 -0.2 0.5
 0.4 -0.2 0.5
 0.5 -0.2 0.5
 -0.5 -0.1 0.5
 -0.4 -0.1 0.5
 -0.3 -0.1 0.5
 -0.2 -0.1 0.5
 -0.1 -0.1 0.5
 0 -0.1 0.5
 0.1 -0.1 0.5
 0.2 -0.1 0.5
 0.3 -0.1 0.5
 0.4 -0.1 0.5
 0.5 -0.1 0.5
 -0.5 0 0.5
 -0.4 0 0.5
 -0.3 0 0.5
 -0.2 0 0.5
 -0.1 0 0.5
 0 0 0.5
 0.1 0 0.5
 0.2 0 0.5
 0.3 0 0.5
 0.4 0 0.5
 0.5 0 0.5
 -0.5 0.1 0.5
 -0.4 0.1 0.5
 -0.3 0.1 0.5
 -0.2 0.1 0.5
 -0.1 0.1 0.5
 0 0.1 0.5
 0.1 0.1 0.5
 0.2 0.1 0.5
 0.3 0.1 0.5
 0.4 0.1 0.5
 0.5 0.1 0.5
 -0.5 0.2 0.5
 -0.4 0.2 0.5
 -0.3 0.2 0.5
 -0.2 0.2 0.5
 -0.1 0.2 0.5
 0 0.2 0.5
 0.1 0.2 0.5
 0.2 0.2 0.5
 0.3 0.2 0.5
 0.4 0.2 0.5
 0.5 0.2 0.5
 -0.5 0.3 0.5
 -0.4 0.3 0.5
 -0.3 0.3 0.5
 -0.2 0.3 0.5
 -0.1 0.3 0.5
 0 0.3 0.5
 0.1 0.3 0.5
 0.2 0.3 0.5
 0.3 0.3 0.5
 0.4 0.3 0.5
 0.5 0.3 0.5
 -0.5 0.4 0.5
 -0.4 0.4 0.5
 -0.3 0.4 0.5
 -0.2 0.4 0.5
 -0.1 0.4 0.5
 0 0.4 0.5
 0.1 0.4 0.5
 0.2 0.4 0.5
 0.3 0.4 0.5
 0.4 0.4 0.5
 0.5 0.4 0.5
 -0.5 0.5 0.5
 -0.4 0.5 0.5
 -0.3 0.5 0.5
 -0.2 0.5 0.5
 -0.1 0.5 0.5
 0 0.5 0.5
 0.1 0.5 0.5
 0.2 0.5 0.5
 0.3 0.5 0.5
 0.4 0.5 0.5
 0.5 0.5 0.5
 -0.5 0.5 -0.4
 -0.4 0.5 -0.4
 -0.3 0.5 -0.4
 -0.2 0.5 -0.4
 -0.1 0.5 -0.4
 0 0.5 -0.4
 0.1 0.5 -0.4
 0.2 0.5 -0.4
 0.3 0.5 -0.4
 0.4 0.5 -0.4
 0.5 0.5 -0.4
 -0.5 0.5 -0.3
 -0.4 0.5 -0.3
 -0.3 0.5 -0.3
 -0.2 0.5 -0.3
 -0.1 0.5 -0.3
 0 0.5 -0.3
 0.1 0.5 -0.3
 0.2 0.5 -0.3
 0.3 0.5 -0.3
 0.4 0.5 -0.3
 0.5 0.5 -0.3
 -0.5 0.5 -0.2
 -0.4 0.5 -0.2
 -0.3 0.5 -0.2
 -0.2 0.5 -0.2
 -0.1 0.5 -0.2
 0 0.5 -0.2
 0.1 0.5 -0.2
 0.2 0.5 -0.2
 0.3 0.5 -0.2
 0.4 0.5 -0.2
 0.5 0.5 -0.2
 -0.5 0.5 -0.1
 -0.4 0.5 -0.1
 -0.3 0.5 -0.1
 -0.2 0.5 -0.1
 -0.1 0.5 -0.1
 0 0.5 -0.1
 0.1 0.5 -0.1
 0.2 0.5 -0.1
 0.3 0.5 -0.1
 0.4 0.5 -0.1
 0.5 0.5 -0.1
 -0.5 0.5 0
 -0.4 0.5 0
 -0.3 0.5 0
 -0.2 0.5 0
 -0.1 0.5 0
 0 0.5 0
 0.1 0.5 0
 0.2 0.5 0
 0.3 0.5 0
 0.4 0.5 0
 0.5 0.5 0
 -0.5 0.5 0.1
 -0.4 0.5 0.1
 -0.3 0.5 0.1
 -0.2 0.5 0.1
 -0.1 0.5 0.1
 0 0.5 0.1
 0.1 0.5 0.1
 0.2 0.5 0.1
 0.3 0.5 0.1
 0.4 0.5 0.1
 0.5 0.5 0.1
 -0.5 0.5 0.2
 -0.4 0.5 0.2
 -0.3 0.5 0.2
 -0.2 0.5 0.2
 -0.1 0.5 0.2
 0 0.5 0.2
 0.1 0.5 0.2
 0.2 0.5 0.2
 0.3 0.5 0.2
 0.4 0.5 0.2
 0.5 0.5 0.2
 -0.5 0.5 0.3
 -0.4 0.5 0.3
 -0.3 0.5 0.3
 -0.2 0.5 0.3
 -0.1 0.5 0.3
 0 0.5 0.3
 0.1 0.5 0.3
 0.2 0.5 0.3
 0.3 0.5 0.3
 0.4 0.5 0.3
 0.5 0.5 0.3
 -0.5 0.5 0.4
 -0.4 0.5 0.4
 -0.3 0.5 0.4
 -0.2 0.5 0.4
 -0.1 0.5 0.4
 0 0.5 0.4
 0.1 0.5 0.4
 0.2 0.5 0.4
 0.3 0.5 0.4
 0.4 0.5 0.4
 0.5 0.5 0.4
 -0.5 -0.5 -0.4
 -0.4 -0.5 -0.4
 -0.3 -0.5 -0.4
 -0.2 -0.5 -0.4
 -0.1 -0.5 -0.4
 0 -0.5 -0.4
 0.1 -0.5 -0.4
 0.2 -0.5 -0.4
 0.3 -0.5 -0.4
 0.4 -0.5 -0.4
 0.5 -0.5 -0.4
 -0.5 -0.5 -0.3
 -0.4 -0.5 -0.3
 -0.3 -0.5 -0.3
 -0.2 -0.5 -0.3
 -0.1 -0.5 -0.3
 0 -0.5 -0.3
 0.1 -0.5 -0.3
 0.2 -0.5 -0.3
 0.3 -0.5 -0.3
 0.4 -0.5 -0.3
 0.5 -0.5 -0.3
 -0.5 -0.5 -0.2
 -0.4 -0.5 -0.2
 -0.3 -0.5 -0.2
 -0.2 -0.5 -0.2
 -0.1 -0.5 -0.2
 0 -0.5 -0.2
 0.1 -0.5 -0.2
 0.2 -0.5 -0.2
 0.3 -0.5 -0.2
 0.4 -0.5 -0.2
 0.5 -0.5 -0.2
 -0.5 -0.5 -0.1
 -0.4 -0.5 -0.1
 -0.3 -0.5 -0.1
 -0.2 -0.5 -0.1
 -0.1 -0.5 -0.1
 0 -0.5 -0.1
 0.1 -0.5 -0.1
 0.2 -0.5 -0.1
 0.3 -0.5 -0.1
 0.4 -0.5 -0.1
 0.5 -0.5 -0.1
 -0.5 -0.5 0
 -0.4 -0.5 0
 -0.3 -0.5 0
 -0.2 -0.5 0
 -0.1 -0.5 0
 0 -0.5 0
 0.1 -0.5 0
 0.2 -0.5 0
 0.3 -0.5 0
 0.4 -0.5 0
 0.5 -0.5 0
 -0.5 -0.5 0.1
 -0.4 -0.5 0.1
 -0.3 -0.5 0.1
 -0.2 -0.5 0.1
 -0.1 -0.5 0.1
 0 -0.5 0.1
 0.1 -0.5 0.1
 0.2 -0.5 0.1
 0.3 -0.5 0.1
 0.4 -0.5 0.1
 0.5 -0.5 0.1
 -0.5 -0.5 0.2
 -0.4 -0.5 0.2
 -0.3 -0.5 0.2
 -0.2 -0.5 0.2
 -0.1 -0.5 0.2
 0 -0.5 0.2
 0.1 -0.5 0.2
 0.2 -0.5 0.2
 0.3 -0.5 0.2
 0.4 -0.5 0.2
 0.5 -0.5 0.2
 -0.5 -0.5 0.3
 -0.4 -0.5 0.3
 -0.3 -0.5 0.3
 -0.2 -0.5 0.3
 -0.1 -0.5 0.3
 0 -0.5 0.3
 0.1 -0.5 0.3
 0.2 -0.5 0.3
 0.3 -0.5 0.3
 0.4 -0.5 0.3
 0.5 -0.5 0.3
 -0.5 -0.5 0.4
 -0.4 -0.5 0.4
 -0.3 -0.5 0.4
 -0.2 -0.5 0.4
 -0.1 -0.5 0.4
 0 -0.5 0.4
 0.1 -0.5 0.4
 0.2 -0.5 0.4
 0.3 -0.5 0.4
 0.4 -0.5 0.4
 0.5 -0.5 0.4
 -0.5 -0.4 -0.4
 -0.5 -0.3 -0.4
 -0.5 -0.2 -0.4
 -0.5 -0.1 -0.4
 -0.5 0 -0.4
 -0.5 0.1 -0.4
 -0.5 0.2 -0.4
 -0.5 0.3 -0.4
 -0.5 0.4 -0.4
 -0.5 -0.4 -0.3
 -0.5 -0.3 -0.3
 -0.5 -0.2 -0.3
 -0.5 -0.1 -0.3
 -0.5 0 -0.3
 -0.5 0.1 -0.3
 -0.5 0.2 -0.3
 -0.5 0.3 -0.3
 -0.5 0.4 -0.3
 -0.5 -0.4 -0.2
 -0.5 -0.3 -0.2
 -0.5 -0.2 -0.2
 -0.5 -0.1 -0.2
 -0.5 0 -0.2
 -0.5 0.1 -0.2
 -0.5 0.2 -0.2
 -0.5 0.3 -0.2
 -0.5 0.4 -0.2
 -0.5 -0.4 -0.1
 -0.5 -0.3 -0.1
 -0.5 -0.2 -0.1
 -0.5 -0.1 -0.1
 -0.5 0 -0.1
 -0.5 0.1 -0.1
 -0.5 0.2 -0.1
 -0.5 0.3 -0.1
 -0.5 0.4 -0.1
 -0.5 -0.4 0
 -0.5 -0.3 0
 -0.5 -0.2 0
 -0.5 -0.1 0
 -0.5 0 0
 -0.5 0.1 0
 -0.5 0.2 0
 -0.5 0.3 0
 -0.5 0.4 0
 -0.5 -0.4 0.1
 -0.5 -0.3 0.1
 -0.5 -0.2 0.1
 -0.5 -0.1 0.1
 -0.5 0 0.1
 -0.5 0.1 0.1
 -0.5 0.2 0.1
 -0.5 0.3 0.1
 -0.5 0.4 0.1
 -0.5 -0.4 0.2
 -0.5 -0.3 0.2
 -0.5 -0.2 0.2
 -0.5 -0.1 0.2
 -0.5 0 0.2
 -0.5 0.1 0.2
 -0.5 0.2 0.2
 -0.5 0.3 0.2
 -0.5 0.4 0.2
 -0.5 -0.4 0.3
 -0.5 -0.3 0.3
 -0.5 -0.2 0.3
 -0.5 -0.1 0.3
 -0.5 0 0.3
 -0.5 0.1 0.3
 -0.5 0.2 0.3
 -0.5 0.3 0.3
 -0.5 0.4 0.3
 -0.5 -0.4 0.4
 -0.5 -0.3 0.4
 -0.5 -0.2 0.4
 -0.5 -0.1 0.4
 -0.5 0 0.4
 -0.5 0.1 0.4
 -0.5 0.2 0.4
 -0.5 0.3 0.4
 -0.5 0.4 0.4
 0.5 -0.4 -0.4
 0.5 -0.3 -0.4
 0.5 -0.2 -0.4
 0.5 -0.1 -0.4
 0.5 0 -0.4
 0.5 0.1 -0.4
 0.5 0.2 -0.4
 0.5 0.3 -0.4
 0.5 0.4 -0.4
 0.5 -0.4 -0.3
 0.5 -0.3 -0.3
 0.5 -0.2 -0.3
 0.5 -0.1 -0.3
 0.5 0 -0.3
 0.5 0.1 -0.3
 0.5 0.2 -0.3
 0.5 0.3 -0.3
 0.5 0.4 -0.3
 0.5 -0.4 -0.2
 0.5 -0.3 -0.2
 0.5 -0.2 -0.2
 0.5 -0.1 -0.2
 0.5 0 -0.2
 0.5 0.1 -0.2
 0.5 0.2 -0.2
 0.5 0.3 -0.2
 0.5 0.4 -0.2
 0.5 -0.4 -0.1
 0.5 -0.3 -0.1
 0.5 -0.2 -0.1
 0.5 -0.1 -0.1
 0.5 0 -0.1
 0.5 0.1 -0.1
 0.5 0.2 -0.1
 0.5 0.3 -0.1
 0.5 0.4 -0.1
 0.5 -0.4 0
 0.5 -0.3 0
 0.5 -0.2 0
 0.5 -0.1 0
 0.5 0 0
 0.5 0.1 0
 0.5 0.2 0
 0.5 0.3 0
 0.5 0.4 0
 0.5 -0.4 0.1
 0.5 -0.3 0.1
 0.5 -0.2 0.1
 0.5 -0.1 0.1
 0.5 0 0.1
 0.5 0.1 0.1
 0.5 0.2 0.1
 0.5 0.3 0.1
 0.5 0.4 0.1
 0.5 -0.4 0.2
 0.5 -0.3 0.2
 0.5 -0.2 0.2
 0.5 -0.1 0.2
 0.5 0 0.2
 0.5 0.1 0.2
 0.5 0.2 0.2
 0.5 0.3 0.2
 0.5 0.4 0.2
 0.5 -0.4 0.3
 0.5 -0.3 0.3
 0.5 -0.2 0.3
 0.5 -0.1 0.3
 0.5 0 0.3
 0.5 0.1 0.3
 0.5 0.2 0.3
 0.5 0.3 0.3
 0.5 0.4 0.3
 0.5 -0.4 0.4
 0.5 -0.3 0.4
 0.5 -0.2 0.4
 0.5 -0.1 0.4
 0.5 0 0.4
 0.5 0.1 0.4
 0.5 0.2 0.4
 0.5 0.3 0.4
 0.5 0.4 0.4

CELLS 600 3000
 4 0 1 12 11
 4 1 2 13 12
 4 2 3 14 13
 4 3 4 15 14
 4 4 5 16 15
 4 5 6 17 16
 4 6 7 18 17
 4 7 8 19 18
 4 8 9 20 19
 4 9 10 21 20
 4 11 12 23 22
 4 12 13 24 23
 4 13 14 25 24
 4 14 15 26 25
 4 15 16 27 26
 4 16 17 28 27
 4 17 18 29 28
 4 18 19 30 29
 4 19 20 31 30
 4 20 21 32 31
 4 22 23 34 33
 4 23 24 35 34
 4 24 25 36 35
 4 25 26 37 36
 4 26 27 38 37
 4 27 28 39 38
 4 28 29 40 39
 4 29 30 41 40
 4 30 31 42 41
 4 31 32 43 42
 4 33 34 45 44
 4 34 35 46 45
 4 35 36 47 46
 4 36 37 48 47
 4 37 38 49 48
 4 38 39 50 49
 4 39 40 51 50
 4 40 41 52 51
 4 41 42 53 52
 4 42 43 54 53
 4 44 45 56 55
 4 45 46 57 56
 4 46 47 58 57
 4 47 48 59 58
 4 48 49 60 59
 4 49 50 61 60
 4 50 51 62 61
 4 51 52 63 62
 4 52 53 64 63
 4 53 54 65 64
 4 55 56 67 66
 4 56 57 68 67
 4 57 58 69 68
 4 58 59 70 69
 4 59 60 71 70
 4 60 61 72 71
 4 61 62 73 72
 4 62 63 74 73
 4 63 64 75 74
 4 64 65 76 75
 4 66 67 78 77
 4 67 68 79 78
 4 68 69 80 79
 4 69 70 81 80
 4 70 71 82 81
 4 71 72 83 82
 4 72 73 84 83
 4 73 74 85 84
 4 74 75 86 85
 4 75 76 87 86
 4 77 78 89 88
 4 78 79 90 89
 4 79 80 91 90
 4 80 81 92 91
 4 81 82 93 92
 4 82 83 94 93
 4 83 84 95 94
 4 84 85 96 95
 4 85 86 97 96
 4 86 87 98 97
 4 88 89 100 99
 4 89 90 101 100
 4 90 91 102 101
 4 91 92 103 102
 4 92 93 104 103
 4 93 94 105 104
 4 94 95 106 105
 4 95 96 107 106
 4 96 97 108 107
 4 97 98 109 108
 4 99 100 111 110
 4 100 101 112 111
 4 101 102 113 112
 4 102 103 114 113
[...]
CELL_DATA 600
FIELD DOMAIN 2
SurfaceElement_HEAT_FLUX_q 1 600 FLOAT
 0.77225
 0.747883
 0.750203
 0.709492
 0.746903
 0.708754
 0.740664
 0.729234
 0.756357
 0.763008
 0.761906
 0.738885
 0.735461
 0.718096
 0.710266
 0.722449
 0.744782
 0.74002
 0.767082
 0.772285
 0.770884
 0.746213
 0.728059
 0.722148
 0.725852
 0.716906
 0.725359
 0.716777
 0.745848
 0.76468
 0.767961
 0.75327
 0.733379
 0.742445
 0.725992
 0.706
 0.736957
 0.737802
 0.759371
 0.766301
 0.780562
 0.755574
 0.73627
 0.718228
 0.712023
 0.722078
 0.728289
 0.744869
 0.749273
 0.76118
 0.783562
 0.745986
 0.733102
 0.723188
 0.729012
 0.71275
 0.72377
 0.737936
 0.741895
 0.772742
 0.757023
 0.751094
 0.730086
 0.720123
 0.726977
 0.691957
 0.734766
 0.742625
 0.759637
 0.781109
 0.763375
 0.763016
 0.724148
 0.736723
 0.724898
 0.712939
 0.723203
 0.730328
 0.764861
 0.770541
 0.772637
 0.761469
 0.731699
 0.737328
 0.717774
 0.709651
 0.730859
 0.724398
 0.730406
 0.773072
 0.760406
 0.740525
 0.735027
 0.727914
 0.705564
 0.731688
 0.740181
 0.731216
 0.743697
 0.754211
 0.75018
 0.755477
 0.719246
 0.71434
 0.736227
 0.71125
 0.729754
 0.72868
 0.754875
 0.755525
 0.779789
 0.739472
 0.72641
 0.731008
 0.708988
 0.696785
 0.708748
 0.720941
 0.748908
 0.783695
 0.771969
 0.746307
 0.725145
 0.718879
 0.716594
 0.705383
 0.722207
 0.733305
 0.749102
 0.764187
 0.763633
 0.764559
 0.733672
 0.728688
 0.709635
 0.713148
 0.710498
 0.754734
 0.746119
 0.780574
 0.756391
 0.750625
 0.73536
 0.71148
 0.698977
 0.714846
 0.734568
 0.736273
 0.729313
 0.753242
 0.768223
 0.74359
 0.739621
 0.729285
 0.723547
 0.712876
 0.718942
 0.70358
 0.767133
 0.760332
 0.762957
 0.749805
 0.734547
 0.745921
 0.720938
 0.740129
 0.712852
 0.731012
 0.752965
 0.776676
 0.766457
 0.722697
 0.741649
 0.722113
 0.732052
 0.722406
 0.716625
 0.744734
 0.752437
 0.770299
 0.774493
 0.741379
 0.758016
 0.714047
 0.717137
 0.71675
 0.718156
 0.729018
 0.751947
 0.766609
 0.769062
 0.744711
 0.722686
 0.723785
 0.710594
 0.734682
 0.719504
 0.725406
 0.749168
 0.758485
 0
 0
 0
 0
 0
 0
 0
 0
 0
 0
 0
 0
 0
 0
 0
 0
 0
 0
 0
 0
 0
 0
 0
 0
 0
 0
 0
 0
 0
 0
 0
 0
 0
 0
 0
 0
 0
 0
 0
 0
 0
 0
 0
 0
 0
 0
 0
 0
 0
 0
 0
 0
 0
 0
 0
 0
 0
 0
 0
 0
 0
 0
 0
 0
 0
 0
 0
 0
 0
 0
 0
 0
 0
 0
 0
 0
 0
 0
 0
 0
 0
 0
 0
 0
 0
 0
 0
 0
 0
 0
 0
 0
 0
 0
 0
 0
 0
 0
 0
 0
 0
 0
 0
 0
 0
 0
 0
 0
 0
 0
 0
 0
 0
 0
 0
 0
 0
 0
 0
 0
 0
 0
 0
 0
 0
 0
 0
 0
 0
 0
 0
 0
 0
 0
 0
 0
 0
 0
 0
 0
 0
 0
 0
 0
 0
 0
 0
 0
 0
 0
 0
 0
 0
 0
 0
 0
 0
 0
 0
 0
 0
 0
 0
 0
 0
 0
 0
 0
 0
 0
 0
 0
 0
 0
 0
 0
 0
 0
 0
 0
 0
 0
 0
 0
 0
 0
 0
 0
 0
 0
 0
 0
 0
 0
 0
 0
 0
 0
 0
 0
 -0.785078
 -0.808664
 -0.760668
 -0.789307
 -0.735234
 -0.806552
 -0.796566
 -0.819141
 -0.738133
 -0.758014
 -0.778625
 -0.763148
 -0.754377
 -0.728164
 -0.763605
 -0.748437
 -0.769687
 -0.787656
 -0.776398
 -0.805975
 -0.732586
 -0.715041
 -0.762992
 -0.769695
 -0.75475
 -0.711027
 -0.760061
 -0.717734
 -0.77475
 -0.720477
 -0.721035
 -0.713711
 -0.708375
 -0.744828
 -0.700141
 -0.717594
 -0.719043
 -0.695211
 -0.702031
 -0.683328
 -0.677746
 -0.70332
 -0.722948
 -0.717156
 -0.728326
 -0.706272
 -0.700957
 -0.696312
 -0.713072
 -0.696693
 -0.652062
 -0.738969
 -0.702475
 -0.662328
 -0.692344
 -0.689078
 -0.72675
 -0.699609
 -0.683273
 -0.674945
 -0.712187
 -0.717136
 -0.712672
 -0.710553
 -0.695687
 -0.732227
 -0.715449
 -0.731437
 -0.721979
 -0.742066
 -0.711859
 -0.696118
 -0.70757
 -0.713812
 -0.728141
 -0.720609
 -0.759578
 -0.731062
 -0.746437
 -0.748766
 -0.790148
 -0.771094
 -0.744288
 -0.790008
 -0.719367
 -0.749508
 -0.730281
 -0.768281
 -0.756219
 -0.73732
 -0.80717
 -0.824675
 -0.754047
 -0.786531
 -0.791418
 -0.824889
 -0.79041
 -0.75243
 -0.785875
 -0.751352
 -0.774
 -0.823115
 -0.814844
 -0.79807
 -0.802617
 -0.793848
 -0.80668
 -0.786687
 -0.823883
 -0.789441
 -0.762969
 -0.798141
 -0.722316
 -0.764933
 -0.748216
 -0.772969
 -0.753094
 -0.79505
 -0.75725
 -0.77717
 -0.746852
 -0.723641
 -0.717977
 -0.738102
 -0.729258
 -0.749764
 -0.761125
 -0.728414
 -0.735047
 -0.750352
 -0.660834
 -0.690102
 -0.673852
 -0.713459
 -0.714375
 -0.715969
 -0.703314
 -0.730781
 -0.737867
 -0.715422
 -0.683309
 -0.673414
 -0.715984
 -0.724469
 -0.682607
 -0.678156
 -0.714031
 -0.770558
 -0.746863
 -0.702348
 -0.713434
 -0.717943
 -0.685523
 -0.685969
 -0.705531
 -0.686867
 -0.740529
 -0.717973
 -0.664734
 -0.688242
 -0.715769
 -0.683766
 -0.70209
 -0.73525
 -0.706119
 -0.716195
 -0.687566
 -0.735422
 -0.713967
 -0.686328
 -0.714988
 -0.729086
 -0.706086
 -0.712434
 -0.775984
 -0.734297
 -0.726453
 -0.751133
 -0.699355
 -0.738992
 -0.776437
 -0.761199
 -0.758781
 -0.772867
 -0.776523
 -0.75957
 -0.731725
 -0.780559
 -0.756406
 -0.74398
 -0.77948
 -0.807449
 -0.785484
 -0.735867
 -0.764324
 -0.804758
 -0.803529
 -0.808883
 -0.787272
 -0.782547

SurfaceElement_HEAT_Q 1 600 FLOAT 
 0.0077225
 0.00747883
 0.00750203
 0.00709492
 0.00746903
 0.00708754
 0.00740664
 0.00729234
 0.00756357
 0.00763008
 0.00761906
 0.00738885
 0.00735461
 0.00718096
 0.00710266
 0.00722449
 0.00744782
 0.0074002
 0.00767082
 0.00772285
 0.00770884
 0.00746213
 0.00728059
 0.00722148
 0.00725852
 0.00716906
 0.00725359
 0.00716777
 0.00745848
 0.0076468
 0.00767961
 0.0075327
 0.00733379
 0.00742445
 0.00725992
 0.00706
 0.00736957
 0.00737802
 0.00759371
 0.00766301
 0.00780562
 0.00755574
 0.0073627
 0.00718228
 0.00712023
 0.00722078
 0.00728289
 0.00744869
 0.00749273
 0.0076118
 0.00783562
 0.00745986
 0.00733102
 0.00723188
 0.00729012
 0.0071275
 0.0072377
 0.00737936
 0.00741895
 0.00772742
 0.00757023
 0.00751094
 0.00730086
 0.00720123
 0.00726977
 0.00691957
 0.00734766
 0.00742625
 0.00759637
 0.00781109
 0.00763375
 0.00763016
 0.00724148
 0.00736723
 0.00724898
 0.00712939
 0.00723203
 0.00730328
 0.00764861
 0.00770541
 0.00772637
 0.00761469
 0.00731699
 0.00737328
 0.00717774
 0.00709651
 0.00730859
 0.00724398
 0.00730406
 0.00773072
 0.00760406
 0.00740525
 0.00735027
 0.00727914
 0.00705564
 0.00731688
 0.00740181
 0.00731216
 0.00743697
 0.00754211
 0.0075018
 0.00755477
 0.00719246
 0.0071434
 0.00736227
 0.0071125
 0.00729754
 0.0072868
 0.00754875
 0.00755525
 0.00779789
 0.00739472
 0.0072641
 0.00731008
 0.00708988
 0.00696785
 0.00708748
 0.00720941
 0.00748908
 0.00783695
 0.00771969
 0.00746307
 0.00725145
 0.00718879
 0.00716594
 0.00705383
 0.00722207
 0.00733305
 0.00749102
 0.00764187
 0.00763633
 0.00764559
 0.00733672
 0.00728688
 0.00709635
 0.00713148
 0.00710498
 0.00754734
 0.00746119
 0.00780574
 0.00756391
 0.00750625
 0.0073536
 0.0071148
 0.00698977
 0.00714846
 0.00734568
 0.00736273
 0.00729313
 0.00753242
 0.00768223
 0.0074359
 0.00739621
 0.00729285
 0.00723547
 0.00712876
 0.00718942
 0.0070358
 0.00767133
 0.00760332
 0.00762957
 0.00749805
 0.00734547
 0.00745921
 0.00720938
 0.00740129
 0.00712852
 0.00731012
 0.00752965
 0.00776676
 0.00766457
 0.00722697
 0.00741649
 0.00722113
 0.00732052
 0.00722406
 0.00716625
 0.00744734
 0.00752437
 0.00770299
 0.00774493
 0.00741379
 0.00758016
 0.00714047
 0.00717137
 0.0071675
 0.00718156
 0.00729018
 0.00751947
 0.00766609
 0.00769062
 0.00744711
 0.00722686
 0.00723785
 0.00710594
 0.00734682
 0.00719504
 0.00725406
 0.00749168
 0.00758485
 0
 0
 0
 0
 0
 0
 0
 0
 0
 0
 0
 0
 0
 0
 0
 0
 0
 0
 0
 0
 0
 0
 0
 0
 0
 0
 0
 0
 0
 0
 0
 0
 0
 0
 0
 0
 0
 0
 0
 0
 0
 0
 0
 0
 0
 0
 0
 0
 0
 0
 0
 0
 0
 0
 0
 0
 0
 0
 0
 0
 0
 0
 0
 0
 0
 0
 0
 0
 0
 0
 0
 0
 0
 0
 0
 0
 0
 0
 0
 0
 0
 0
 0
 0
 0
 0
 0
 0
 0
 0
 0
 0
 0
 0
 0
 0
 0
 0
 0
 0
 0
 0
 0
 0
 0
 0
 0
 0
 0
 0
 0
 0
 0
 0
 0
 0
 0
 0
 0
 0
 0
 0
 0
 0
 0
 0
 0
 0
 0
 0
 0
 0
 0
 0
 0
 0
 0
 0
 0
 0
 0
 0
 0
 0
 0
 0
 0
 0
 0
 0
 0
 0
 0
 0
 0
 0
 0
 0
 0
 0
 0
 0
 0
 0
 0
 0
 0
 0
 0
 0
 0
 0
 0
 0
 0
 0
 0
 0
 0
 0
 0
 0
 0
 0
 0
 0
 0
 0
 0
 0
 0
 0
 0
 0
 0
 0
 0
 0
 0
 0
 -0.00785078
 -0.00808664
 -0.00760668
 -0.00789307
 -0.00735234
 -0.00806552
 -0.00796566
 -0.00819141
 -0.00738133
 -0.00758014
 -0.00778625
 -0.00763148
 -0.00754377
 -0.00728164
 -0.00763605
 -0.00748437
 -0.00769687
 -0.00787656
 -0.00776398
 -0.00805975
 -0.00732586
 -0.00715041
 -0.00762992
 -0.00769695
 -0.0075475
 -0.00711027
 -0.00760061
 -0.00717734
 -0.0077475
 -0.00720477
 -0.00721035
 -0.00713711
 -0.00708375
 -0.00744828
 -0.00700141
 -0.00717594
 -0.00719043
 -0.00695211
 -0.00702031
 -0.00683328
 -0.00677746
 -0.0070332
 -0.00722948
 -0.00717156
 -0.00728326
 -0.00706272
 -0.00700957
 -0.00696312
 -0.00713072
 -0.00696693
 -0.00652062
 -0.00738969
 -0.00702475
 -0.00662328
 -0.00692344
 -0.00689078
 -0.0072675
 -0.00699609
 -0.00683273
 -0.00674945
 -0.00712187
 -0.00717136
 -0.00712672
 -0.00710553
 -0.00695687
 -0.00732227
 -0.00715449
 -0.00731437
 -0.00721979
 -0.00742066
 -0.00711859
 -0.00696118
 -0.0070757
 -0.00713812
 -0.00728141
 -0.00720609
 -0.00759578
 -0.00731062
 -0.00746437
 -0.00748766
 -0.00790148
 -0.00771094
 -0.00744288
 -0.00790008
 -0.00719367
 -0.00749508
 -0.00730281
 -0.00768281
 -0.00756219
 -0.0073732
 -0.0080717
 -0.00824675
 -0.00754047
 -0.00786531
 -0.00791418
 -0.00824889
 -0.0079041
 -0.0075243
 -0.00785875
 -0.00751352
 -0.00774
 -0.00823115
 -0.00814844
 -0.0079807
 -0.00802617
 -0.00793848
 -0.0080668
 -0.00786687
 -0.00823883
 -0.00789441
 -0.00762969
 -0.00798141
 -0.00722316
 -0.00764933
 -0.00748216
 -0.00772969
 -0.00753094
 -0.0079505
 -0.0075725
 -0.0077717
 -0.00746852
 -0.00723641
 -0.00717977
 -0.00738102
 -0.00729258
 -0.00749764
 -0.00761125
 -0.00728414
 -0.00735047
 -0.00750352
 -0.00660834
 -0.00690102
 -0.00673852
 -0.00713459
 -0.00714375
 -0.00715969
 -0.00703314
 -0.00730781
 -0.00737867
 -0.00715422
 -0.00683309
 -0.00673414
 -0.00715984
 -0.00724469
 -0.00682607
 -0.00678156
 -0.00714031
 -0.00770558
 -0.00746863
 -0.00702348
 -0.00713434
 -0.00717943
 -0.00685523
 -0.00685969
 -0.00705531
 -0.00686867
 -0.00740529
 -0.00717973
 -0.00664734
 -0.00688242
 -0.00715769
 -0.00683766
 -0.0070209
 -0.0073525
 -0.00706119
 -0.00716195
 -0.00687566
 -0.00735422
 -0.00713967
 -0.00686328
 -0.00714988
 -0.00729086
 -0.00706086
 -0.00712434
 -0.00775984
 -0.00734297
 -0.00726453
 -0.00751133
 -0.00699355
 -0.00738992
 -0.00776437
 -0.00761199
 -0.00758781
 -0.00772867
 -0.00776523
 -0.0075957
 -0.00731725
 -0.00780559
 -0.00756406
 -0.0074398
 -0.0077948
 -0.00807449
 -0.00785484
 -0.00735867
 -0.00764324
 -0.00804758
 -0.00803529
 -0.00808883
 -0.00787272
 -0.00782547
