# vtk DataFile Version 2.0
Three-D cube surface heat flux and Q display
ASCII
DATASET UNSTRUCTURED_GRID

POINTS 602 FLOAT 
 -0.5 -0.5 -0.5
 -0.4 -0.5 -0.5
 -0.3 -0.5 -0.5
 -0.2 -0.5 -0.5
 -0.1 -0.5 -0.5
 0 -0.5 -0.5
 0.1 -0.5 -0.5
 0.2 -0.5 -0.5
 0.3 -0.5 -0.5
 0.4 -0.5 -0.5
 0.5 -0.5 -0.5
 -0.5 -0.4 -0.5
 -0.4 -0.4 -0.5
 -0.3 -0.4 -0.5
 -0.2 -0.4 -0.5
 -0.1 -0.4 -0.5
 0 -0.4 -0.5
 0.1 -0.4 -0.5
 0.2 -0.4 -0.5
 0.3 -0.4 -0.5
 0.4 -0.4 -0.5
 0.5 -0.4 -0.5
 -0.5 -0.3 -0.5
 -0.4 -0.3 -0.5
 -0.3 -0.3 -0.5
 -0.2 -0.3 -0.5
 -0.1 -0.3 -0.5
 0 -0.3 -0.5
 0.1 -0.3 -0.5
 0.2 -0.3 -0.5
 0.3 -0.3 -0.5
 0.4 -0.3 -0.5
 0.5 -0.3 -0.5
 -0.5 -0.2 -0.5
 -0.4 -0.2 -0.5
 -0.3 -0.2 -0.5
 -0.2 -0.2 -0.5
 -0.1 -0.2 -0.5
 0 -0.2 -0.5
 0.1 -0.2 -0.5
 0.2 -0.2 -0.5
 0.3 -0.2 -0.5
 0.4 -0.2 -0.5
 0.5 -0.2 -0.5
 -0.5 -0.1 -0.5
 -0.4 -0.1 -0.5
 -0.3 -0.1 -0.5
 -0.2 -0.1 -0.5
 -0.1 -0.1 -0.5
 0 -0.1 -0.5
 0.1 -0.1 -0.5
 0.2 -0.1 -0.5
 0.3 -0.1 -0.5
 0.4 -0.1 -0.5
 0.5 -0.1 -0.5
 -0.5 0 -0.5
 -0.4 0 -0.5
 -0.3 0 -0.5
 -0.2 0 -0.5
 -0.1 0 -0.5
 0 0 -0.5
 0.1 0 -0.5
 0.2 0 -0.5
 0.3 0 -0.5
 0.4 0 -0.5
 0.5 0 -0.5
 -0.5 0.1 -0.5
 -0.4 0.1 -0.5
 -0.3 0.1 -0.5
 -0.2 0.1 -0.5
 -0.1 0.1 -0.5
 0 0.1 -0.5
 0.1 0.1 -0.5
 0.2 0.1 -0.5
 0.3 0.1 -0.5
 0.4 0.1 -0.5
 0.5 0.1 -0.5
 -0.5 0.2 -0.5
 -0.4 0.2 -0.5
 -0.3 0.2 -0.5
 -0.2 0.2 -0.5
 -0.1 0.2 -0.5
 0 0.2 -0.5
 0.1 0.2 -0.5
 0.2 0.2 -0.5
 0.3 0.2 -0.5
 0.4 0.2 -0.5
 0.5 0.2 -0.5
 -0.5 0.3 -0.5
 -0.4 0.3 -0.5
 -0.3 0.3 -0.5
 -0.2 0.3 -0.5
 -0.1 0.3 -0.5
 0 0.3 -0.5
 0.1 0.3 -0.5
 0.2 0.3 -0.5
 0.3 0.3 -0.5
 0.4 0.3 -0.5
 0.5 0.3 -0.5
 -0.5 0.4 -0.5
 -0.4 0.4 -0.5
 -0.3 0.4 -0.5
 -0.2 0.4 -0.5
 -0.1 0.4 -0.5
 0 0.4 -0.5
 0.1 0.4 -0.5
 0.2 0.4 -0.5
 0.3 0.4 -0.5
 0.4 0.4 -0.5
 0.5 0.4 -0.5
 -0.5 0.5 -0.5
 -0.4 0.5 -0.5
 -0.3 0.5 -0.5
 -0.2 0.5 -0.5
 -0.1 0.5 -0.5
 0 0.5 -0.5
 0.1 0.5 -0.5
 0.2 0.5 -0.5
 0.3 0.5 -0.5
 0.4 0.5 -0.5
 0.5 0.5 -0.5
 -0.5 -0.5 0.5
 -0.4 -0.5 0.5
 -0.3 -0.5 0.5
 -0.2 -0.5 0.5
 -0.1 -0.5 0.5
 0 -0.5 0.5
 0.1 -0.5 0.5
 0.2 -0.5 0.5
 0.3 -0.5 0.5
 0.4 -0.5 0.5
 0.5 -0.5 0.5
 -0.5 -0.4 0.5
 -0.4 -0.4 0.5
 -0.3 -0.4 0.5
 -0.2 -0.4 0.5
 -0.1 -0.4 0.5
 0 -0.4 0.5
 0.1 -0.4 0.5
 0.2 -0.4 0.5
 0.3 -0.4 0.5
 0.4 -0.4 0.5
 0.5 -0.4 0.5
 -0.5 -0.3 0.5
 -0.4 -0.3 0.5
 -0.3 -0.3 0.5
 -0.2 -0.3 0.5
 -0.1 -0.3 0.5
 0 -0.3 0.5
 0.1 -0.3 0.5
 0.2 -0.3 0.5
 0.3 -0.3 0.5
 0.4 -0.3 0.5
 0.5 -0.3 0.5
 -0.5 -0.2 0.5
 -0.4 -0.2 0.5
 -0.3 -0.2 0.5
 -0.2 -0.2 0.5
 -0.1 -0.2 0.5
 0 -0.2 0.5
 0.1 -0.2 0.5
 0.2 -0.2 0.5
 0.3 -0.2 0.5
 0.4 -0.2 0.5
 0.5 -0.2 0.5
 -0.5 -0.1 0.5
 -0.4 -0.1 0.5
 -0.3 -0.1 0.5
 -0.2 -0.1 0.5
 -0.1 -0.1 0.5
 0 -0.1 0.5
 0.1 -0.1 0.5
 0.2 -0.1 0.5
 0.3 -0.1 0.5
 0.4 -0.1 0.5
 0.5 -0.1 0.5
 -0.5 0 0.5
 -0.4 0 0.5
 -0.3 0 0.5
 -0.2 0 0.5
 -0.1 0 0.5
 0 0 0.5
 0.1 0 0.5
 0.2 0 0.5
 0.3 0 0.5
 0.4 0 0.5
 0.5 0 0.5
 -0.5 0.1 0.5
 -0.4 0.1 0.5
 -0.3 0.1 0.5
 -0.2 0.1 0.5
 -0.1 0.1 0.5
 0 0.1 0.5
 0.1 0.1 0.5
 0.2 0.1 0.5
 0.3 0.1 0.5
 0.4 0.1 0.5
 0.5 0.1 0.5
 -0.5 0.2 0.5
 -0.4 0.2 0.5
 -0.3 0.2 0.5
 -0.2 0.2 0.5
 -0.1 0.2 0.5
 0 0.2 0.5
 0.1 0.2 0.5
 0.2 0.2 0.5
 0.3 0.2 0.5
 0.4 0.2 0.5
 0.5 0.2 0.5
 -0.5 0.3 0.5
 -0.4 0.3 0.5
 -0.3 0.3 0.5
 -0.2 0.3 0.5
 -0.1 0.3 0.5
 0 0.3 0.5
 0.1 0.3 0.5
 0.2 0.3 0.5
 0.3 0.3 0.5
 0.4 0.3 0.5
 0.5 0.3 0.5
 -0.5 0.4 0.5
 -0.4 0.4 0.5
 -0.3 0.4 0.5
 -0.2 0.4 0.5
 -0.1 0.4 0.5
 0 0.4 0.5
 0.1 0.4 0.5
 0.2 0.4 0.5
 0.3 0.4 0.5
 0.4 0.4 0.5
 0.5 0.4 0.5
 -0.5 0.5 0.5
 -0.4 0.5 0.5
 -0.3 0.5 0.5
 -0.2 0.5 0.5
 -0.1 0.5 0.5
 0 0.5 0.5
 0.1 0.5 0.5
 0.2 0.5 0.5
 0.3 0.5 0.5
 0.4 0.5 0.5
 0.5 0.5 0.5
 -0.5 0.5 -0.4
 -0.4 0.5 -0.4
 -0.3 0.5 -0.4
 -0.2 0.5 -0.4
 -0.1 0.5 -0.4
 0 0.5 -0.4
 0.1 0.5 -0.4
 0.2 0.5 -0.4
 0.3 0.5 -0.4
 0.4 0.5 -0.4
 0.5 0.5 -0.4
 -0.5 0.5 -0.3
 -0.4 0.5 -0.3
 -0.3 0.5 -0.3
 -0.2 0.5 -0.3
 -0.1 0.5 -0.3
 0 0.5 -0.3
 0.1 0.5 -0.3
 0.2 0.5 -0.3
 0.3 0.5 -0.3
 0.4 0.5 -0.3
 0.5 0.5 -0.3
 -0.5 0.5 -0.2
 -0.4 0.5 -0.2
 -0.3 0.5 -0.2
 -0.2 0.5 -0.2
 -0.1 0.5 -0.2
 0 0.5 -0.2
 0.1 0.5 -0.2
 0.2 0.5 -0.2
 0.3 0.5 -0.2
 0.4 0.5 -0.2
 0.5 0.5 -0.2
 -0.5 0.5 -0.1
 -0.4 0.5 -0.1
 -0.3 0.5 -0.1
 -0.2 0.5 -0.1
 -0.1 0.5 -0.1
 0 0.5 -0.1
 0.1 0.5 -0.1
 0.2 0.5 -0.1
 0.3 0.5 -0.1
 0.4 0.5 -0.1
 0.5 0.5 -0.1
 -0.5 0.5 0
 -0.4 0.5 0
 -0.3 0.5 0
 -0.2 0.5 0
 -0.1 0.5 0
 0 0.5 0
 0.1 0.5 0
 0.2 0.5 0
 0.3 0.5 0
 0.4 0.5 0
 0.5 0.5 0
 -0.5 0.5 0.1
 -0.4 0.5 0.1
 -0.3 0.5 0.1
 -0.2 0.5 0.1
 -0.1 0.5 0.1
 0 0.5 0.1
 0.1 0.5 0.1
 0.2 0.5 0.1
 0.3 0.5 0.1
 0.4 0.5 0.1
 0.5 0.5 0.1
 -0.5 0.5 0.2
 -0.4 0.5 0.2
 -0.3 0.5 0.2
 -0.2 0.5 0.2
 -0.1 0.5 0.2
 0 0.5 0.2
 0.1 0.5 0.2
 0.2 0.5 0.2
 0.3 0.5 0.2
 0.4 0.5 0.2
 0.5 0.5 0.2
 -0.5 0.5 0.3
 -0.4 0.5 0.3
 -0.3 0.5 0.3
 -0.2 0.5 0.3
 -0.1 0.5 0.3
 0 0.5 0.3
 0.1 0.5 0.3
 0.2 0.5 0.3
 0.3 0.5 0.3
 0.4 0.5 0.3
 0.5 0.5 0.3
 -0.5 0.5 0.4
 -0.4 0.5 0.4
 -0.3 0.5 0.4
 -0.2 0.5 0.4
 -0.1 0.5 0.4
 0 0.5 0.4
 0.1 0.5 0.4
 0.2 0.5 0.4
 0.3 0.5 0.4
 0.4 0.5 0.4
 0.5 0.5 0.4
 -0.5 -0.5 -0.4
 -0.4 -0.5 -0.4
 -0.3 -0.5 -0.4
 -0.2 -0.5 -0.4
 -0.1 -0.5 -0.4
 0 -0.5 -0.4
 0.1 -0.5 -0.4
 0.2 -0.5 -0.4
 0.3 -0.5 -0.4
 0.4 -0.5 -0.4
 0.5 -0.5 -0.4
 -0.5 -0.5 -0.3
 -0.4 -0.5 -0.3
 -0.3 -0.5 -0.3
 -0.2 -0.5 -0.3
 -0.1 -0.5 -0.3
 0 -0.5 -0.3
 0.1 -0.5 -0.3
 0.2 -0.5 -0.3
 0.3 -0.5 -0.3
 0.4 -0.5 -0.3
 0.5 -0.5 -0.3
 -0.5 -0.5 -0.2
 -0.4 -0.5 -0.2
 -0.3 -0.5 -0.2
 -0.2 -0.5 -0.2
 -0.1 -0.5 -0.2
 0 -0.5 -0.2
 0.1 -0.5 -0.2
 0.2 -0.5 -0.2
 0.3 -0.5 -0.2
 0.4 -0.5 -0.2
 0.5 -0.5 -0.2
 -0.5 -0.5 -0.1
 -0.4 -0.5 -0.1
 -0.3 -0.5 -0.1
 -0.2 -0.5 -0.1
 -0.1 -0.5 -0.1
 0 -0.5 -0.1
 0.1 -0.5 -0.1
 0.2 -0.5 -0.1
 0.3 -0.5 -0.1
 0.4 -0.5 -0.1
 0.5 -0.5 -0.1
 -0.5 -0.5 0
 -0.4 -0.5 0
 -0.3 -0.5 0
 -0.2 -0.5 0
 -0.1 -0.5 0
 0 -0.5 0
 0.1 -0.5 0
 0.2 -0.5 0
 0.3 -0.5 0
 0.4 -0.5 0
 0.5 -0.5 0
 -0.5 -0.5 0.1
 -0.4 -0.5 0.1
 -0.3 -0.5 0.1
 -0.2 -0.5 0.1
 -0.1 -0.5 0.1
 0 -0.5 0.1
 0.1 -0.5 0.1
 0.2 -0.5 0.1
 0.3 -0.5 0.1
 0.4 -0.5 0.1
 0.5 -0.5 0.1
 -0.5 -0.5 0.2
 -0.4 -0.5 0.2
 -0.3 -0.5 0.2
 -0.2 -0.5 0.2
 -0.1 -0.5 0.2
 0 -0.5 0.2
 0.1 -0.5 0.2
 0.2 -0.5 0.2
 0.3 -0.5 0.2
 0.4 -0.5 0.2
 0.5 -0.5 0.2
 -0.5 -0.5 0.3
 -0.4 -0.5 0.3
 -0.3 -0.5 0.3
 -0.2 -0.5 0.3
 -0.1 -0.5 0.3
 0 -0.5 0.3
 0.1 -0.5 0.3
 0.2 -0.5 0.3
 0.3 -0.5 0.3
 0.4 -0.5 0.3
 0.5 -0.5 0.3
 -0.5 -0.5 0.4
 -0.4 -0.5 0.4
 -0.3 -0.5 0.4
 -0.2 -0.5 0.4
 -0.1 -0.5 0.4
 0 -0.5 0.4
 0.1 -0.5 0.4
 0.2 -0.5 0.4
 0.3 -0.5 0.4
 0.4 -0.5 0.4
 0.5 -0.5 0.4
 -0.5 -0.4 -0.4
 -0.5 -0.3 -0.4
 -0.5 -0.2 -0.4
 -0.5 -0.1 -0.4
 -0.5 0 -0.4
 -0.5 0.1 -0.4
 -0.5 0.2 -0.4
 -0.5 0.3 -0.4
 -0.5 0.4 -0.4
 -0.5 -0.4 -0.3
 -0.5 -0.3 -0.3
 -0.5 -0.2 -0.3
 -0.5 -0.1 -0.3
 -0.5 0 -0.3
 -0.5 0.1 -0.3
 -0.5 0.2 -0.3
 -0.5 0.3 -0.3
 -0.5 0.4 -0.3
 -0.5 -0.4 -0.2
 -0.5 -0.3 -0.2
 -0.5 -0.2 -0.2
 -0.5 -0.1 -0.2
 -0.5 0 -0.2
 -0.5 0.1 -0.2
 -0.5 0.2 -0.2
 -0.5 0.3 -0.2
 -0.5 0.4 -0.2
 -0.5 -0.4 -0.1
 -0.5 -0.3 -0.1
 -0.5 -0.2 -0.1
 -0.5 -0.1 -0.1
 -0.5 0 -0.1
 -0.5 0.1 -0.1
 -0.5 0.2 -0.1
 -0.5 0.3 -0.1
 -0.5 0.4 -0.1
 -0.5 -0.4 0
 -0.5 -0.3 0
 -0.5 -0.2 0
 -0.5 -0.1 0
 -0.5 0 0
 -0.5 0.1 0
 -0.5 0.2 0
 -0.5 0.3 0
 -0.5 0.4 0
 -0.5 -0.4 0.1
 -0.5 -0.3 0.1
 -0.5 -0.2 0.1
 -0.5 -0.1 0.1
 -0.5 0 0.1
 -0.5 0.1 0.1
 -0.5 0.2 0.1
 -0.5 0.3 0.1
 -0.5 0.4 0.1
 -0.5 -0.4 0.2
 -0.5 -0.3 0.2
 -0.5 -0.2 0.2
 -0.5 -0.1 0.2
 -0.5 0 0.2
 -0.5 0.1 0.2
 -0.5 0.2 0.2
 -0.5 0.3 0.2
 -0.5 0.4 0.2
 -0.5 -0.4 0.3
 -0.5 -0.3 0.3
 -0.5 -0.2 0.3
 -0.5 -0.1 0.3
 -0.5 0 0.3
 -0.5 0.1 0.3
 -0.5 0.2 0.3
 -0.5 0.3 0.3
 -0.5 0.4 0.3
 -0.5 -0.4 0.4
 -0.5 -0.3 0.4
 -0.5 -0.2 0.4
 -0.5 -0.1 0.4
 -0.5 0 0.4
 -0.5 0.1 0.4
 -0.5 0.2 0.4
 -0.5 0.3 0.4
 -0.5 0.4 0.4
 0.5 -0.4 -0.4
 0.5 -0.3 -0.4
 0.5 -0.2 -0.4
 0.5 -0.1 -0.4
 0.5 0 -0.4
 0.5 0.1 -0.4
 0.5 0.2 -0.4
 0.5 0.3 -0.4
 0.5 0.4 -0.4
 0.5 -0.4 -0.3
 0.5 -0.3 -0.3
 0.5 -0.2 -0.3
 0.5 -0.1 -0.3
 0.5 0 -0.3
 0.5 0.1 -0.3
 0.5 0.2 -0.3
 0.5 0.3 -0.3
 0.5 0.4 -0.3
 0.5 -0.4 -0.2
 0.5 -0.3 -0.2
 0.5 -0.2 -0.2
 0.5 -0.1 -0.2
 0.5 0 -0.2
 0.5 0.1 -0.2
 0.5 0.2 -0.2
 0.5 0.3 -0.2
 0.5 0.4 -0.2
 0.5 -0.4 -0.1
 0.5 -0.3 -0.1
 0.5 -0.2 -0.1
 0.5 -0.1 -0.1
 0.5 0 -0.1
 0.5 0.1 -0.1
 0.5 0.2 -0.1
 0.5 0.3 -0.1
 0.5 0.4 -0.1
 0.5 -0.4 0
 0.5 -0.3 0
 0.5 -0.2 0
 0.5 -0.1 0
 0.5 0 0
 0.5 0.1 0
 0.5 0.2 0
 0.5 0.3 0
 0.5 0.4 0
 0.5 -0.4 0.1
 0.5 -0.3 0.1
 0.5 -0.2 0.1
 0.5 -0.1 0.1
 0.5 0 0.1
 0.5 0.1 0.1
 0.5 0.2 0.1
 0.5 0.3 0.1
 0.5 0.4 0.1
 0.5 -0.4 0.2
 0.5 -0.3 0.2
 0.5 -0.2 0.2
 0.5 -0.1 0.2
 0.5 0 0.2
 0.5 0.1 0.2
 0.5 0.2 0.2
 0.5 0.3 0.2
 0.5 0.4 0.2
 0.5 -0.4 0.3
 0.5 -0.3 0.3
 0.5 -0.2 0.3
 0.5 -0.1 0.3
 0.5 0 0.3
 0.5 0.1 0.3
 0.5 0.2 0.3
 0.5 0.3 0.3
 0.5 0.4 0.3
 0.5 -0.4 0.4
 0.5 -0.3 0.4
 0.5 -0.2 0.4
 0.5 -0.1 0.4
 0.5 0 0.4
 0.5 0.1 0.4
 0.5 0.2 0.4
 0.5 0.3 0.4
 0.5 0.4 0.4

CELLS 600 3000
 4 0 1 12 11
 4 1 2 13 12
 4 2 3 14 13
 4 3 4 15 14
 4 4 5 16 15
 4 5 6 17 16
 4 6 7 18 17
 4 7 8 19 18
 4 8 9 20 19
 4 9 10 21 20
 4 11 12 23 22
 4 12 13 24 23
 4 13 14 25 24
 4 14 15 26 25
 4 15 16 27 26
 4 16 17 28 27
 4 17 18 29 28
 4 18 19 30 29
 4 19 20 31 30
 4 20 21 32 31
 4 22 23 34 33
 4 23 24 35 34
 4 24 25 36 35
 4 25 26 37 36
 4 26 27 38 37
 4 27 28 39 38
 4 28 29 40 39
 4 29 30 41 40
 4 30 31 42 41
 4 31 32 43 42
 4 33 34 45 44
 4 34 35 46 45
 4 35 36 47 46
 4 36 37 48 47
 4 37 38 49 48
 4 38 39 50 49
 4 39 40 51 50
 4 40 41 52 51
 4 41 42 53 52
 4 42 43 54 53
 4 44 45 56 55
 4 45 46 57 56
 4 46 47 58 57
 4 47 48 59 58
 4 48 49 60 59
 4 49 50 61 60
 4 50 51 62 61
 4 51 52 63 62
 4 52 53 64 63
 4 53 54 65 64
 4 55 56 67 66
 4 56 57 68 67
 4 57 58 69 68
 4 58 59 70 69
 4 59 60 71 70
 4 60 61 72 71
 4 61 62 73 72
 4 62 63 74 73
 4 63 64 75 74
 4 64 65 76 75
 4 66 67 78 77
 4 67 68 79 78
 4 68 69 80 79
 4 69 70 81 80
 4 70 71 82 81
 4 71 72 83 82
 4 72 73 84 83
 4 73 74 85 84
 4 74 75 86 85
 4 75 76 87 86
 4 77 78 89 88
 4 78 79 90 89
 4 79 80 91 90
 4 80 81 92 91
 4 81 82 93 92
 4 82 83 94 93
 4 83 84 95 94
 4 84 85 96 95
 4 85 86 97 96
 4 86 87 98 97
 4 88 89 100 99
 4 89 90 101 100
 4 90 91 102 101
 4 91 92 103 102
 4 92 93 104 103
 4 93 94 105 104
 4 94 95 106 105
 4 95 96 107 106
 4 96 97 108 107
 4 97 98 109 108
 4 99 100 111 110
 4 100 101 112 111
 4 101 102 113 112
 4 102 103 114 113
[...]
CELL_DATA 600
FIELD DOMAIN 2
SurfaceElement_HEAT_FLUX_q 1 600 FLOAT
 58451
 58864.6
 59270.3
 58601.8
 59483.3
 59141.8
 58534.5
 58219.2
 58836.4
 58547.9
 61106.3
 62226.6
 60710.2
 61056.8
 60454.7
 61370.1
 60903.3
 60476
 61154.8
 62626.7
 62533.6
 63496.7
 61738.7
 62517.1
 60779.4
 62632.9
 62466.4
 63065.7
 62707.9
 63776
 63708
 63280.4
 62819.7
 63401.1
 63063.8
 64338
 63731.4
 62684.5
 63480.7
 62332.7
 63813.2
 62519.2
 62591.5
 63023.6
 62237.9
 64378.5
 64052.1
 63510.6
 63823.4
 61906
 60582.6
 60952
 60836
 61077.6
 62520.8
 62604.7
 61210.4
 61986.3
 62411.6
 61708.4
 59841
 58446.8
 60096.7
 59965.8
 58466.8
 59650.5
 59514.2
 60051.1
 58423.1
 59325.8
 56947.3
 55577.9
 56403.7
 56955
 57576.1
 56060.1
 56383.7
 55945.4
 55105.6
 55131.2
 51622.4
 53384
 50322.4
 50863.9
 52422.5
 51221.3
 51578.4
 52320.7
 51657.5
 55196.7
 48080.7
 46700.5
 44537.1
 46613.5
 43775.5
 46164
 46243.7
 43602.8
 45208.1
 48206.5
 -26827.6
 -27989.5
 -27950.1
 -27814
 -28465.6
 -28156.3
 -28521.4
 -28675.1
 -28054.9
 -27015.6
 -26940.3
 -26879.1
 -27849
 -28019.6
 -27464.5
 -27424.5
 -28308.4
 -28430.1
 -27821.8
 -27263.5
 -27874.2
 -27824.7
 -27417
 -26984.5
 -27339
 -27027.3
 -27206.1
 -27086.8
 -27890
 -27006.5
 -27265.2
 -28743.6
 -27079.9
 -27021.2
 -26122.9
 -26445.4
 -26120.6
 -27104.7
 -27763.5
 -26738
 -27492.7
 -27399.9
 -26793.1
 -27126.5
 -26733.3
 -26345
 -26493.3
 -26714.4
 -27704.8
 -26996.3
 -28168.5
 -27325.9
 -27998.1
 -27007.2
 -27718
 -28068.8
 -26773.3
 -27117.2
 -29146.5
 -27762.4
 -29859.5
 -28354.3
 -30054.7
 -29778.6
 -29141.8
 -28912.5
 -28917.5
 -28455.3
 -29901.6
 -29299.8
 -29395.7
 -30651
 -31290.2
 -30333.2
 -31752.7
 -30807
 -30367.7
 -31258.1
 -30747.2
 -30829.3
 -31479.8
 -31993.1
 -33464.4
 -32777.2
 -33111.4
 -33502.9
 -33208.6
 -33231.6
 -32619
 -31715.6
 -33477.9
 -34934.7
 -36582.3
 -35800.5
 -35861.1
 -34837
 -35178.4
 -36668.9
 -35272.9
 -34531.2
 8056.57
 8040.81
 8048.13
 8097.08
 8098.61
 8016.16
 8036.02
 8042.79
 8093.17
 8092.74
 8049.27
 7957.45
 8074.59
 7989.78
 8005.27
 8078.34
 7997.24
 7978.49
 8018.68
 8100.67
 7975.64
 7986.8
 7940.88
 7984.25
 8023.27
 7949.83
 7992.84
 7964.85
 8023.06
 7985.13
 7934.92
 7884.22
 7858.43
 7888.39
 8018.86
 7982.44
 7890.99
 7947.77
 7918.43
 7884.18
 7852.76
 7772.21
 7857.78
 7832.79
 7861.92
 7802.71
 7838.82
 7850.96
 7794.18
 7837.39
 7683.09
 7721.09
 7684.53
 7741.01
 7710.97
 7659.55
 7682.33
 7641.92
 7715.22
 7675.4
 7545.72
 7430.03
 7520.11
 7549.45
 7529.11
 7500.88
 7552.64
 7446.71
 7485.52
 7547.31
 7377.88
 7335.15
 7256.58
 7319.67
 7321.27
 7300.22
 7337.15
 7335.43
 7374.52
 7440.14
 7194.62
 7153.96
 7125.48
 7003.08
 7104.25
 7106.38
 7041.73
 7035.98
 7038.17
 7147.37
 6912.94
 6893.45
 6822.59
 6762.94
 6900.14
 6841.16
 6730.18
 6798.89
 6894.48
 6852.65
 42835.8
 42783
 42738
 42780
 42778.1
 42812.9
 42787.9
 42781.3
 42810
 42781.4
 42826.5
 42836.4
 42786
 42809.3
 42849.4
 42789.5
 42779.4
 42855.3
 42841.9
 42729.3
 42781.3
 42795.8
 42763.8
 42796.1
 42775
 42837.7
 42753.7
 42793.7
 42759.3
 42719.4
 42735.6
 42775.3
 42737.6
 42710.5
 42782.7
 42783.4
 42753.6
 42724
 42654.4
 42760.4
 42629.3
 42629.5
 42618.1
 42721
 42681.4
 42690.9
 42688.2
 42620.6
 42554.2
 42572.9
 42492.2
 42468.2
 42550.4
 42537.5
 42599.5
 42510.1
 42541.2
 42553
 42551.4
 42548
 42386.5
 42288.6
 42377
 42320.8
 42481.4
 42362.9
 42347.4
 42286
 42404.9
 42313.3
 42200.6
 42099.4
 42047.5
 42173.1
 42181.7
 42114.9
 42106.8
 42222.7
 42215.7
 42189.7
 41985.9
 41947.5
 41920.8
 42014.4
 41922.7
 41966.2
 41775
 41962.1
 42032.8
 41951
 41799.9
 41643.6
 41616.6
 41637.4
 41545.4
 41538.3
 41622.7
 41515.6
 41681.1
 41677.9
 -9725.53
 -9682.68
 -9373.03
 -9217.63
 -9551.43
 -9323.42
 -9923.81
 -10215.1
 -10591.8
 -11380.1
 -10162.1
 -9667.48
 -9725.71
 -9505.58
 -9559.02
 -9661.77
 -10360.4
 -10581.6
 -11486.1
 -11868
 -10319
 -9859.03
 -9894.68
 -9886.64
 -9725.76
 -10307.4
 -10081.5
 -11077.6
 -11840.2
 -12350.2
 -10429.3
 -10085.5
 -10233.7
 -10396
 -10065.7
 -10579.4
 -10614.9
 -11320.8
 -11837.9
 -13179.5
 -10877.6
 -10433.5
 -10681.5
 -10699.1
 -10312.3
 -10658.1
 -11334.9
 -11967.1
 -12429.7
 -13501.4
 -11205.5
 -11384.9
 -11350.7
 -10934.8
 -11123.3
 -11483.3
 -11636.2
 -12324.3
 -12816.9
 -13294.2
 -12063.8
 -11845.1
 -11813.3
 -11908.6
 -11947.5
 -11791.7
 -12667.5
 -12762
 -13151.1
 -14311
 -13193.1
 -12559.6
 -12377.2
 -12759
 -12578.4
 -12718.3
 -12917.6
 -13557.4
 -14198.9
 -14612.1
 -13584.9
 -13313.7
 -13625.3
 -13168
 -13054
 -13592.6
 -14442
 -14419.4
 -15175.3
 -15223.1
 -14114
 -14620.3
 -14427.7
 -14402.7
 -14609.7
 -14712
 -14947.6
 -14542.1
 -15607
 -16745.4
 -9689.36
 -9501.99
 -9513.17
 -9459.16
 -9228.19
 -9761.14
 -9689.61
 -9897.06
 -10625
 -11023.3
 -10023.5
 -9906.34
 -9418.86
 -9454.58
 -9381.26
 -9571.47
 -10031.2
 -10765
 -11305.6
 -12197.9
 -10539.3
 -9961.01
 -9785.32
 -9830.9
 -10131.7
 -9981.17
 -10451.7
 -11005.1
 -11455.7
 -12815.7
 -10514.8
 -10631.2
 -10153.6
 -10097.9
 -10171
 -10622.9
 -10839.7
 -11210.8
 -12115.7
 -12916.4
 -10653.7
 -10863.6
 -10712
 -10432.2
 -10548.3
 -11084.3
 -11242.1
 -11771
 -11909.6
 -13929.7
 -11491.8
 -11289.8
 -10910.5
 -11036.1
 -11111.5
 -11360.1
 -11807.9
 -12201.6
 -12698.4
 -13599.8
 -11982.8
 -11860
 -11622.7
 -11508.3
 -11923.3
 -12561.4
 -12341.3
 -12824.7
 -13382.3
 -14491.4
 -12944.5
 -12887
 -12418.9
 -12560.9
 -12800
 -12856.7
 -13117.9
 -13706
 -14186.2
 -15391.9
 -13253.6
 -13328.8
 -13524
 -13335.9
 -13404.9
 -13779.7
 -14139.2
 -14770.4
 -15071.9
 -15115.5
 -14848.6
 -14590.4
 -14012.2
 -14069.2
 -14002.6
 -14523.9
 -15036.7
 -14560.7
 -15343.7
 -16438.5

SurfaceElement_HEAT_Q 1 600 FLOAT 
 584.51
 588.646
 592.703
 586.018
 594.833
 591.418
 585.345
 582.192
 588.364
 585.479
 611.063
 622.266
 607.102
 610.568
 604.547
 613.701
 609.033
 604.76
 611.548
 626.267
 625.336
 634.967
 617.387
 625.171
 607.794
 626.329
 624.664
 630.657
 627.079
 637.76
 637.08
 632.804
 628.197
 634.011
 630.638
 643.38
 637.314
 626.845
 634.807
 623.327
 638.132
 625.192
 625.915
 630.236
 622.379
 643.785
 640.521
 635.106
 638.234
 619.06
 605.826
 609.52
 608.36
 610.776
 625.208
 626.047
 612.104
 619.863
 624.116
 617.084
 598.41
 584.468
 600.967
 599.658
 584.668
 596.505
 595.142
 600.511
 584.231
 593.258
 569.473
 555.779
 564.037
 569.55
 575.761
 560.601
 563.837
 559.454
 551.056
 551.312
 516.224
 533.84
 503.224
 508.639
 524.225
 512.213
 515.784
 523.207
 516.575
 551.967
 480.807
 467.005
 445.371
 466.135
 437.755
 461.64
 462.437
 436.028
 452.081
 482.065
 -268.276
 -279.895
 -279.501
 -278.14
 -284.656
 -281.563
 -285.214
 -286.751
 -280.549
 -270.156
 -269.403
 -268.791
 -278.49
 -280.196
 -274.645
 -274.245
 -283.084
 -284.301
 -278.218
 -272.635
 -278.742
 -278.247
 -274.17
 -269.845
 -273.39
 -270.273
 -272.061
 -270.868
 -278.9
 -270.065
 -272.652
 -287.436
 -270.799
 -270.212
 -261.229
 -264.454
 -261.206
 -271.047
 -277.635
 -267.38
 -274.927
 -273.999
 -267.931
 -271.265
 -267.333
 -263.45
 -264.933
 -267.144
 -277.048
 -269.963
 -281.685
 -273.259
 -279.981
 -270.072
 -277.18
 -280.688
 -267.733
 -271.172
 -291.465
 -277.624
 -298.595
 -283.543
 -300.547
 -297.786
 -291.418
 -289.125
 -289.175
 -284.553
 -299.016
 -292.998
 -293.957
 -306.51
 -312.902
 -303.332
 -317.527
 -308.07
 -303.677
 -312.581
 -307.472
 -308.293
 -314.798
 -319.931
 -334.644
 -327.772
 -331.114
 -335.029
 -332.086
 -332.316
 -326.19
 -317.156
 -334.779
 -349.347
 -365.823
 -358.005
 -358.611
 -348.37
 -351.784
 -366.689
 -352.729
 -345.312
 80.5657
 80.4081
 80.4813
 80.9708
 80.9861
 80.1616
 80.3602
 80.4279
 80.9317
 80.9274
 80.4927
 79.5745
 80.7459
 79.8978
 80.0527
 80.7834
 79.9724
 79.7849
 80.1868
 81.0067
 79.7564
 79.868
 79.4088
 79.8425
 80.2327
 79.4983
 79.9284
 79.6485
 80.2306
 79.8513
 79.3492
 78.8422
 78.5843
 78.8839
 80.1886
 79.8244
 78.9099
 79.4777
 79.1843
 78.8418
 78.5276
 77.7221
 78.5778
 78.3279
 78.6192
 78.0271
 78.3882
 78.5096
 77.9418
 78.3739
 76.8309
 77.2109
 76.8453
 77.4101
 77.1097
 76.5955
 76.8233
 76.4192
 77.1522
 76.754
 75.4572
 74.3003
 75.2011
 75.4945
 75.2911
 75.0088
 75.5264
 74.4671
 74.8552
 75.4731
 73.7788
 73.3515
 72.5658
 73.1967
 73.2127
 73.0022
 73.3715
 73.3543
 73.7452
 74.4014
 71.9462
 71.5396
 71.2548
 70.0308
 71.0425
 71.0638
 70.4173
 70.3598
 70.3817
 71.4737
 69.1294
 68.9345
 68.2259
 67.6294
 69.0014
 68.4116
 67.3018
 67.9889
 68.9448
 68.5265
 428.358
 427.83
 427.38
 427.8
 427.781
 428.129
 427.879
 427.813
 428.1
 427.814
 428.265
 428.364
 427.86
 428.093
 428.494
 427.895
 427.794
 428.553
 428.419
 427.293
 427.813
 427.958
 427.638
 427.961
 427.75
 428.377
 427.537
 427.937
 427.593
 427.194
 427.356
 427.753
 427.376
 427.105
 427.827
 427.834
 427.536
 427.24
 426.544
 427.604
 426.293
 426.295
 426.181
 427.21
 426.814
 426.909
 426.882
 426.206
 425.542
 425.729
 424.922
 424.682
 425.504
 425.375
 425.995
 425.101
 425.412
 425.53
 425.514
 425.48
 423.865
 422.886
 423.77
 423.208
 424.814
 423.629
 423.474
 422.86
 424.049
 423.133
 422.006
 420.994
 420.475
 421.731
 421.817
 421.149
 421.068
 422.227
 422.157
 421.897
 419.859
 419.475
 419.208
 420.144
 419.227
 419.662
 417.75
 419.621
 420.328
 419.51
 417.999
 416.436
 416.166
 416.374
 415.454
 415.383
 416.227
 415.156
 416.811
 416.779
 -97.2553
 -96.8268
 -93.7303
 -92.1763
 -95.5143
 -93.2342
 -99.2381
 -102.151
 -105.918
 -113.801
 -101.621
 -96.6748
 -97.2571
 -95.0558
 -95.5902
 -96.6177
 -103.604
 -105.816
 -114.861
 -118.68
 -103.19
 -98.5903
 -98.9468
 -98.8664
 -97.2576
 -103.074
 -100.815
 -110.776
 -118.402
 -123.502
 -104.293
 -100.855
 -102.337
 -103.96
 -100.657
 -105.794
 -106.149
 -113.208
 -118.379
 -131.795
 -108.776
 -104.335
 -106.815
 -106.991
 -103.123
 -106.581
 -113.349
 -119.671
 -124.297
 -135.014
 -112.055
 -113.849
 -113.507
 -109.348
 -111.233
 -114.833
 -116.362
 -123.243
 -128.169
 -132.942
 -120.638
 -118.451
 -118.133
 -119.086
 -119.475
 -117.917
 -126.675
 -127.62
 -131.511
 -143.11
 -131.931
 -125.596
 -123.772
 -127.59
 -125.784
 -127.183
 -129.176
 -135.574
 -141.989
 -146.121
 -135.849
 -133.137
 -136.253
 -131.68
 -130.54
 -135.926
 -144.42
 -144.194
 -151.753
 -152.231
 -141.14
 -146.203
 -144.277
 -144.027
 -146.097
 -147.12
 -149.476
 -145.421
 -156.07
 -167.454
 -96.8936
 -95.0199
 -95.1317
 -94.5916
 -92.2819
 -97.6114
 -96.8961
 -98.9706
 -106.25
 -110.233
 -100.235
 -99.0634
 -94.1886
 -94.5458
 -93.8126
 -95.7147
 -100.312
 -107.65
 -113.056
 -121.979
 -105.393
 -99.6101
 -97.8532
 -98.309
 -101.317
 -99.8117
 -104.517
 -110.051
 -114.557
 -128.157
 -105.148
 -106.312
 -101.536
 -100.979
 -101.71
 -106.229
 -108.397
 -112.108
 -121.157
 -129.164
 -106.537
 -108.636
 -107.12
 -104.322
 -105.483
 -110.843
 -112.421
 -117.71
 -119.096
 -139.297
 -114.918
 -112.898
 -109.105
 -110.361
 -111.115
 -113.601
 -118.079
 -122.016
 -126.984
 -135.998
 -119.828
 -118.6
 -116.227
 -115.083
 -119.233
 -125.614
 -123.413
 -128.247
 -133.823
 -144.914
 -129.445
 -128.87
 -124.189
 -125.609
 -128
 -128.567
 -131.179
 -137.06
 -141.862
 -153.919
 -132.536
 -133.288
 -135.24
 -133.359
 -134.049
 -137.797
 -141.392
 -147.704
 -150.719
 -151.155
 -148.486
 -145.904
 -140.122
 -140.692
 -140.026
 -145.239
 -150.367
 -145.607
 -153.437
 -164.385
