# vtk DataFile Version 2.0
Three-D cube divergence of heat flux and Q in volume elements
ASCII
DATASET UNSTRUCTURED_GRID

POINTS  1331  FLOAT
 -0.5 -0.5 -0.5
 -0.4 -0.5 -0.5
 -0.3 -0.5 -0.5
 -0.2 -0.5 -0.5
 -0.1 -0.5 -0.5
 0 -0.5 -0.5
 0.1 -0.5 -0.5
 0.2 -0.5 -0.5
 0.3 -0.5 -0.5
 0.4 -0.5 -0.5
 0.5 -0.5 -0.5
 -0.5 -0.4 -0.5
 -0.4 -0.4 -0.5
 -0.3 -0.4 -0.5
 -0.2 -0.4 -0.5
 -0.1 -0.4 -0.5
 0 -0.4 -0.5
 0.1 -0.4 -0.5
 0.2 -0.4 -0.5
 0.3 -0.4 -0.5
 0.4 -0.4 -0.5
 0.5 -0.4 -0.5
 -0.5 -0.3 -0.5
 -0.4 -0.3 -0.5
 -0.3 -0.3 -0.5
 -0.2 -0.3 -0.5
 -0.1 -0.3 -0.5
 0 -0.3 -0.5
 0.1 -0.3 -0.5
 0.2 -0.3 -0.5
 0.3 -0.3 -0.5
 0.4 -0.3 -0.5
 0.5 -0.3 -0.5
 -0.5 -0.2 -0.5
 -0.4 -0.2 -0.5
 -0.3 -0.2 -0.5
 -0.2 -0.2 -0.5
 -0.1 -0.2 -0.5
 0 -0.2 -0.5
 0.1 -0.2 -0.5
 0.2 -0.2 -0.5
 0.3 -0.2 -0.5
 0.4 -0.2 -0.5
 0.5 -0.2 -0.5
 -0.5 -0.1 -0.5
 -0.4 -0.1 -0.5
 -0.3 -0.1 -0.5
 -0.2 -0.1 -0.5
 -0.1 -0.1 -0.5
 0 -0.1 -0.5
 0.1 -0.1 -0.5
 0.2 -0.1 -0.5
 0.3 -0.1 -0.5
 0.4 -0.1 -0.5
 0.5 -0.1 -0.5
 -0.5 0 -0.5
 -0.4 0 -0.5
 -0.3 0 -0.5
 -0.2 0 -0.5
 -0.1 0 -0.5
 0 0 -0.5
 0.1 0 -0.5
 0.2 0 -0.5
 0.3 0 -0.5
 0.4 0 -0.5
 0.5 0 -0.5
 -0.5 0.1 -0.5
 -0.4 0.1 -0.5
 -0.3 0.1 -0.5
 -0.2 0.1 -0.5
 -0.1 0.1 -0.5
 0 0.1 -0.5
 0.1 0.1 -0.5
 0.2 0.1 -0.5
 0.3 0.1 -0.5
 0.4 0.1 -0.5
 0.5 0.1 -0.5
 -0.5 0.2 -0.5
 -0.4 0.2 -0.5
 -0.3 0.2 -0.5
 -0.2 0.2 -0.5
 -0.1 0.2 -0.5
 0 0.2 -0.5
 0.1 0.2 -0.5
 0.2 0.2 -0.5
 0.3 0.2 -0.5
 0.4 0.2 -0.5
 0.5 0.2 -0.5
 -0.5 0.3 -0.5
 -0.4 0.3 -0.5
 -0.3 0.3 -0.5
 -0.2 0.3 -0.5
 -0.1 0.3 -0.5
 0 0.3 -0.5
 0.1 0.3 -0.5
 0.2 0.3 -0.5
 0.3 0.3 -0.5
 0.4 0.3 -0.5
 0.5 0.3 -0.5
 -0.5 0.4 -0.5
 -0.4 0.4 -0.5
 -0.3 0.4 -0.5
 -0.2 0.4 -0.5
 -0.1 0.4 -0.5
 0 0.4 -0.5
 0.1 0.4 -0.5
 0.2 0.4 -0.5
 0.3 0.4 -0.5
 0.4 0.4 -0.5
 0.5 0.4 -0.5
 -0.5 0.5 -0.5
 -0.4 0.5 -0.5
 -0.3 0.5 -0.5
 -0.2 0.5 -0.5
 -0.1 0.5 -0.5
 0 0.5 -0.5
 0.1 0.5 -0.5
 0.2 0.5 -0.5
 0.3 0.5 -0.5
 0.4 0.5 -0.5
 0.5 0.5 -0.5
 -0.5 -0.5 -0.4
 -0.4 -0.5 -0.4
 -0.3 -0.5 -0.4
 -0.2 -0.5 -0.4
 -0.1 -0.5 -0.4
 0 -0.5 -0.4
 0.1 -0.5 -0.4
 0.2 -0.5 -0.4
 0.3 -0.5 -0.4
 0.4 -0.5 -0.4
 0.5 -0.5 -0.4
 -0.5 -0.4 -0.4
 -0.4 -0.4 -0.4
 -0.3 -0.4 -0.4
 -0.2 -0.4 -0.4
 -0.1 -0.4 -0.4
 0 -0.4 -0.4
 0.1 -0.4 -0.4
 0.2 -0.4 -0.4
 0.3 -0.4 -0.4
 0.4 -0.4 -0.4
 0.5 -0.4 -0.4
 -0.5 -0.3 -0.4
 -0.4 -0.3 -0.4
 -0.3 -0.3 -0.4
 -0.2 -0.3 -0.4
 -0.1 -0.3 -0.4
 0 -0.3 -0.4
 0.1 -0.3 -0.4
 0.2 -0.3 -0.4
 0.3 -0.3 -0.4
 0.4 -0.3 -0.4
 0.5 -0.3 -0.4
 -0.5 -0.2 -0.4
 -0.4 -0.2 -0.4
 -0.3 -0.2 -0.4
 -0.2 -0.2 -0.4
 -0.1 -0.2 -0.4
 0 -0.2 -0.4
 0.1 -0.2 -0.4
 0.2 -0.2 -0.4
 0.3 -0.2 -0.4
 0.4 -0.2 -0.4
 0.5 -0.2 -0.4
 -0.5 -0.1 -0.4
 -0.4 -0.1 -0.4
 -0.3 -0.1 -0.4
 -0.2 -0.1 -0.4
 -0.1 -0.1 -0.4
 0 -0.1 -0.4
 0.1 -0.1 -0.4
 0.2 -0.1 -0.4
 0.3 -0.1 -0.4
 0.4 -0.1 -0.4
 0.5 -0.1 -0.4
 -0.5 0 -0.4
 -0.4 0 -0.4
 -0.3 0 -0.4
 -0.2 0 -0.4
 -0.1 0 -0.4
 0 0 -0.4
 0.1 0 -0.4
 0.2 0 -0.4
 0.3 0 -0.4
 0.4 0 -0.4
 0.5 0 -0.4
 -0.5 0.1 -0.4
 -0.4 0.1 -0.4
 -0.3 0.1 -0.4
 -0.2 0.1 -0.4
 -0.1 0.1 -0.4
 0 0.1 -0.4
 0.1 0.1 -0.4
 0.2 0.1 -0.4
 0.3 0.1 -0.4
 0.4 0.1 -0.4
 0.5 0.1 -0.4
 -0.5 0.2 -0.4
 -0.4 0.2 -0.4
 -0.3 0.2 -0.4
 -0.2 0.2 -0.4
 -0.1 0.2 -0.4
 0 0.2 -0.4
 0.1 0.2 -0.4
 0.2 0.2 -0.4
 0.3 0.2 -0.4
 0.4 0.2 -0.4
 0.5 0.2 -0.4
 -0.5 0.3 -0.4
 -0.4 0.3 -0.4
 -0.3 0.3 -0.4
 -0.2 0.3 -0.4
 -0.1 0.3 -0.4
 0 0.3 -0.4
 0.1 0.3 -0.4
 0.2 0.3 -0.4
 0.3 0.3 -0.4
 0.4 0.3 -0.4
 0.5 0.3 -0.4
 -0.5 0.4 -0.4
 -0.4 0.4 -0.4
 -0.3 0.4 -0.4
 -0.2 0.4 -0.4
 -0.1 0.4 -0.4
 0 0.4 -0.4
 0.1 0.4 -0.4
 0.2 0.4 -0.4
 0.3 0.4 -0.4
 0.4 0.4 -0.4
 0.5 0.4 -0.4
 -0.5 0.5 -0.4
 -0.4 0.5 -0.4
 -0.3 0.5 -0.4
 -0.2 0.5 -0.4
 -0.1 0.5 -0.4
 0 0.5 -0.4
 0.1 0.5 -0.4
 0.2 0.5 -0.4
 0.3 0.5 -0.4
 0.4 0.5 -0.4
 0.5 0.5 -0.4
 -0.5 -0.5 -0.3
 -0.4 -0.5 -0.3
 -0.3 -0.5 -0.3
 -0.2 -0.5 -0.3
 -0.1 -0.5 -0.3
 0 -0.5 -0.3
 0.1 -0.5 -0.3
 0.2 -0.5 -0.3
 0.3 -0.5 -0.3
 0.4 -0.5 -0.3
 0.5 -0.5 -0.3
 -0.5 -0.4 -0.3
 -0.4 -0.4 -0.3
 -0.3 -0.4 -0.3
 -0.2 -0.4 -0.3
 -0.1 -0.4 -0.3
 0 -0.4 -0.3
 0.1 -0.4 -0.3
 0.2 -0.4 -0.3
 0.3 -0.4 -0.3
 0.4 -0.4 -0.3
 0.5 -0.4 -0.3
 -0.5 -0.3 -0.3
 -0.4 -0.3 -0.3
 -0.3 -0.3 -0.3
 -0.2 -0.3 -0.3
 -0.1 -0.3 -0.3
 0 -0.3 -0.3
 0.1 -0.3 -0.3
 0.2 -0.3 -0.3
 0.3 -0.3 -0.3
 0.4 -0.3 -0.3
 0.5 -0.3 -0.3
 -0.5 -0.2 -0.3
 -0.4 -0.2 -0.3
 -0.3 -0.2 -0.3
 -0.2 -0.2 -0.3
 -0.1 -0.2 -0.3
 0 -0.2 -0.3
 0.1 -0.2 -0.3
 0.2 -0.2 -0.3
 0.3 -0.2 -0.3
 0.4 -0.2 -0.3
 0.5 -0.2 -0.3
 -0.5 -0.1 -0.3
 -0.4 -0.1 -0.3
 -0.3 -0.1 -0.3
 -0.2 -0.1 -0.3
 -0.1 -0.1 -0.3
 0 -0.1 -0.3
 0.1 -0.1 -0.3
 0.2 -0.1 -0.3
 0.3 -0.1 -0.3
 0.4 -0.1 -0.3
 0.5 -0.1 -0.3
 -0.5 0 -0.3
 -0.4 0 -0.3
 -0.3 0 -0.3
 -0.2 0 -0.3
 -0.1 0 -0.3
 0 0 -0.3
 0.1 0 -0.3
 0.2 0 -0.3
 0.3 0 -0.3
 0.4 0 -0.3
 0.5 0 -0.3
 -0.5 0.1 -0.3
 -0.4 0.1 -0.3
 -0.3 0.1 -0.3
 -0.2 0.1 -0.3
 -0.1 0.1 -0.3
 0 0.1 -0.3
 0.1 0.1 -0.3
 0.2 0.1 -0.3
 0.3 0.1 -0.3
 0.4 0.1 -0.3
 0.5 0.1 -0.3
 -0.5 0.2 -0.3
 -0.4 0.2 -0.3
 -0.3 0.2 -0.3
 -0.2 0.2 -0.3
 -0.1 0.2 -0.3
 0 0.2 -0.3
 0.1 0.2 -0.3
 0.2 0.2 -0.3
 0.3 0.2 -0.3
 0.4 0.2 -0.3
 0.5 0.2 -0.3
 -0.5 0.3 -0.3
 -0.4 0.3 -0.3
 -0.3 0.3 -0.3
 -0.2 0.3 -0.3
 -0.1 0.3 -0.3
 0 0.3 -0.3
 0.1 0.3 -0.3
 0.2 0.3 -0.3
 0.3 0.3 -0.3
 0.4 0.3 -0.3
 0.5 0.3 -0.3
 -0.5 0.4 -0.3
 -0.4 0.4 -0.3
 -0.3 0.4 -0.3
 -0.2 0.4 -0.3
 -0.1 0.4 -0.3
 0 0.4 -0.3
 0.1 0.4 -0.3
 0.2 0.4 -0.3
 0.3 0.4 -0.3
 0.4 0.4 -0.3
 0.5 0.4 -0.3
 -0.5 0.5 -0.3
 -0.4 0.5 -0.3
 -0.3 0.5 -0.3
 -0.2 0.5 -0.3
 -0.1 0.5 -0.3
 0 0.5 -0.3
 0.1 0.5 -0.3
 0.2 0.5 -0.3
 0.3 0.5 -0.3
 0.4 0.5 -0.3
 0.5 0.5 -0.3
 -0.5 -0.5 -0.2
 -0.4 -0.5 -0.2
 -0.3 -0.5 -0.2
 -0.2 -0.5 -0.2
 -0.1 -0.5 -0.2
 0 -0.5 -0.2
 0.1 -0.5 -0.2
 0.2 -0.5 -0.2
 0.3 -0.5 -0.2
 0.4 -0.5 -0.2
 0.5 -0.5 -0.2
 -0.5 -0.4 -0.2
 -0.4 -0.4 -0.2
 -0.3 -0.4 -0.2
 -0.2 -0.4 -0.2
 -0.1 -0.4 -0.2
 0 -0.4 -0.2
 0.1 -0.4 -0.2
 0.2 -0.4 -0.2
 0.3 -0.4 -0.2
 0.4 -0.4 -0.2
 0.5 -0.4 -0.2
 -0.5 -0.3 -0.2
 -0.4 -0.3 -0.2
 -0.3 -0.3 -0.2
 -0.2 -0.3 -0.2
 -0.1 -0.3 -0.2
 0 -0.3 -0.2
 0.1 -0.3 -0.2
 0.2 -0.3 -0.2
 0.3 -0.3 -0.2
 0.4 -0.3 -0.2
 0.5 -0.3 -0.2
 -0.5 -0.2 -0.2
 -0.4 -0.2 -0.2
 -0.3 -0.2 -0.2
 -0.2 -0.2 -0.2
 -0.1 -0.2 -0.2
 0 -0.2 -0.2
 0.1 -0.2 -0.2
 0.2 -0.2 -0.2
 0.3 -0.2 -0.2
 0.4 -0.2 -0.2
 0.5 -0.2 -0.2
 -0.5 -0.1 -0.2
 -0.4 -0.1 -0.2
 -0.3 -0.1 -0.2
 -0.2 -0.1 -0.2
 -0.1 -0.1 -0.2
 0 -0.1 -0.2
 0.1 -0.1 -0.2
 0.2 -0.1 -0.2
 0.3 -0.1 -0.2
 0.4 -0.1 -0.2
 0.5 -0.1 -0.2
 -0.5 0 -0.2
 -0.4 0 -0.2
 -0.3 0 -0.2
 -0.2 0 -0.2
 -0.1 0 -0.2
 0 0 -0.2
 0.1 0 -0.2
 0.2 0 -0.2
 0.3 0 -0.2
 0.4 0 -0.2
 0.5 0 -0.2
 -0.5 0.1 -0.2
 -0.4 0.1 -0.2
 -0.3 0.1 -0.2
 -0.2 0.1 -0.2
 -0.1 0.1 -0.2
 0 0.1 -0.2
 0.1 0.1 -0.2
 0.2 0.1 -0.2
 0.3 0.1 -0.2
 0.4 0.1 -0.2
 0.5 0.1 -0.2
 -0.5 0.2 -0.2
 -0.4 0.2 -0.2
 -0.3 0.2 -0.2
 -0.2 0.2 -0.2
 -0.1 0.2 -0.2
 0 0.2 -0.2
 0.1 0.2 -0.2
 0.2 0.2 -0.2
 0.3 0.2 -0.2
 0.4 0.2 -0.2
 0.5 0.2 -0.2
 -0.5 0.3 -0.2
 -0.4 0.3 -0.2
 -0.3 0.3 -0.2
 -0.2 0.3 -0.2
 -0.1 0.3 -0.2
 0 0.3 -0.2
 0.1 0.3 -0.2
 0.2 0.3 -0.2
 0.3 0.3 -0.2
 0.4 0.3 -0.2
 0.5 0.3 -0.2
 -0.5 0.4 -0.2
 -0.4 0.4 -0.2
 -0.3 0.4 -0.2
 -0.2 0.4 -0.2
 -0.1 0.4 -0.2
 0 0.4 -0.2
 0.1 0.4 -0.2
 0.2 0.4 -0.2
 0.3 0.4 -0.2
 0.4 0.4 -0.2
 0.5 0.4 -0.2
 -0.5 0.5 -0.2
 -0.4 0.5 -0.2
 -0.3 0.5 -0.2
 -0.2 0.5 -0.2
 -0.1 0.5 -0.2
 0 0.5 -0.2
 0.1 0.5 -0.2
 0.2 0.5 -0.2
 0.3 0.5 -0.2
 0.4 0.5 -0.2
 0.5 0.5 -0.2
 -0.5 -0.5 -0.1
 -0.4 -0.5 -0.1
 -0.3 -0.5 -0.1
 -0.2 -0.5 -0.1
 -0.1 -0.5 -0.1
 0 -0.5 -0.1
 0.1 -0.5 -0.1
 0.2 -0.5 -0.1
 0.3 -0.5 -0.1
 0.4 -0.5 -0.1
 0.5 -0.5 -0.1
 -0.5 -0.4 -0.1
 -0.4 -0.4 -0.1
 -0.3 -0.4 -0.1
 -0.2 -0.4 -0.1
 -0.1 -0.4 -0.1
 0 -0.4 -0.1
 0.1 -0.4 -0.1
 0.2 -0.4 -0.1
 0.3 -0.4 -0.1
 0.4 -0.4 -0.1
 0.5 -0.4 -0.1
 -0.5 -0.3 -0.1
 -0.4 -0.3 -0.1
 -0.3 -0.3 -0.1
 -0.2 -0.3 -0.1
 -0.1 -0.3 -0.1
 0 -0.3 -0.1
 0.1 -0.3 -0.1
 0.2 -0.3 -0.1
 0.3 -0.3 -0.1
 0.4 -0.3 -0.1
 0.5 -0.3 -0.1
 -0.5 -0.2 -0.1
 -0.4 -0.2 -0.1
 -0.3 -0.2 -0.1
 -0.2 -0.2 -0.1
 -0.1 -0.2 -0.1
 0 -0.2 -0.1
 0.1 -0.2 -0.1
 0.2 -0.2 -0.1
 0.3 -0.2 -0.1
 0.4 -0.2 -0.1
 0.5 -0.2 -0.1
 -0.5 -0.1 -0.1
 -0.4 -0.1 -0.1
 -0.3 -0.1 -0.1
 -0.2 -0.1 -0.1
 -0.1 -0.1 -0.1
 0 -0.1 -0.1
 0.1 -0.1 -0.1
 0.2 -0.1 -0.1
 0.3 -0.1 -0.1
 0.4 -0.1 -0.1
 0.5 -0.1 -0.1
 -0.5 0 -0.1
 -0.4 0 -0.1
 -0.3 0 -0.1
 -0.2 0 -0.1
 -0.1 0 -0.1
 0 0 -0.1
 0.1 0 -0.1
 0.2 0 -0.1
 0.3 0 -0.1
 0.4 0 -0.1
 0.5 0 -0.1
 -0.5 0.1 -0.1
 -0.4 0.1 -0.1
 -0.3 0.1 -0.1
 -0.2 0.1 -0.1
 -0.1 0.1 -0.1
 0 0.1 -0.1
 0.1 0.1 -0.1
 0.2 0.1 -0.1
 0.3 0.1 -0.1
 0.4 0.1 -0.1
 0.5 0.1 -0.1
 -0.5 0.2 -0.1
 -0.4 0.2 -0.1
 -0.3 0.2 -0.1
 -0.2 0.2 -0.1
 -0.1 0.2 -0.1
 0 0.2 -0.1
 0.1 0.2 -0.1
 0.2 0.2 -0.1
 0.3 0.2 -0.1
 0.4 0.2 -0.1
 0.5 0.2 -0.1
 -0.5 0.3 -0.1
 -0.4 0.3 -0.1
 -0.3 0.3 -0.1
 -0.2 0.3 -0.1
 -0.1 0.3 -0.1
 0 0.3 -0.1
 0.1 0.3 -0.1
 0.2 0.3 -0.1
 0.3 0.3 -0.1
 0.4 0.3 -0.1
 0.5 0.3 -0.1
 -0.5 0.4 -0.1
 -0.4 0.4 -0.1
 -0.3 0.4 -0.1
 -0.2 0.4 -0.1
 -0.1 0.4 -0.1
 0 0.4 -0.1
 0.1 0.4 -0.1
 0.2 0.4 -0.1
 0.3 0.4 -0.1
 0.4 0.4 -0.1
 0.5 0.4 -0.1
 -0.5 0.5 -0.1
 -0.4 0.5 -0.1
 -0.3 0.5 -0.1
 -0.2 0.5 -0.1
 -0.1 0.5 -0.1
 0 0.5 -0.1
 0.1 0.5 -0.1
 0.2 0.5 -0.1
 0.3 0.5 -0.1
 0.4 0.5 -0.1
 0.5 0.5 -0.1
 -0.5 -0.5 0
 -0.4 -0.5 0
 -0.3 -0.5 0
 -0.2 -0.5 0
 -0.1 -0.5 0
 0 -0.5 0
 0.1 -0.5 0
 0.2 -0.5 0
 0.3 -0.5 0
 0.4 -0.5 0
 0.5 -0.5 0
 -0.5 -0.4 0
 -0.4 -0.4 0
 -0.3 -0.4 0
 -0.2 -0.4 0
 -0.1 -0.4 0
 0 -0.4 0
 0.1 -0.4 0
 0.2 -0.4 0
 0.3 -0.4 0
 0.4 -0.4 0
 0.5 -0.4 0
 -0.5 -0.3 0
 -0.4 -0.3 0
 -0.3 -0.3 0
 -0.2 -0.3 0
 -0.1 -0.3 0
 0 -0.3 0
 0.1 -0.3 0
 0.2 -0.3 0
 0.3 -0.3 0
 0.4 -0.3 0
 0.5 -0.3 0
 -0.5 -0.2 0
 -0.4 -0.2 0
 -0.3 -0.2 0
 -0.2 -0.2 0
 -0.1 -0.2 0
 0 -0.2 0
 0.1 -0.2 0
 0.2 -0.2 0
 0.3 -0.2 0
 0.4 -0.2 0
 0.5 -0.2 0
 -0.5 -0.1 0
 -0.4 -0.1 0
 -0.3 -0.1 0
 -0.2 -0.1 0
 -0.1 -0.1 0
 0 -0.1 0
 0.1 -0.1 0
 0.2 -0.1 0
 0.3 -0.1 0
 0.4 -0.1 0
 0.5 -0.1 0
 -0.5 0 0
 -0.4 0 0
 -0.3 0 0
 -0.2 0 0
 -0.1 0 0
 0 0 0
 0.1 0 0
 0.2 0 0
 0.3 0 0
 0.4 0 0
 0.5 0 0
 -0.5 0.1 0
 -0.4 0.1 0
 -0.3 0.1 0
 -0.2 0.1 0
 -0.1 0.1 0
 0 0.1 0
 0.1 0.1 0
 0.2 0.1 0
 0.3 0.1 0
 0.4 0.1 0
 0.5 0.1 0
 -0.5 0.2 0
 -0.4 0.2 0
 -0.3 0.2 0
 -0.2 0.2 0
 -0.1 0.2 0
 0 0.2 0
 0.1 0.2 0
 0.2 0.2 0
 0.3 0.2 0
 0.4 0.2 0
 0.5 0.2 0
 -0.5 0.3 0
 -0.4 0.3 0
[...]
CELL_DATA 1000
FIELD DOMAIN 2
VOL_DIV_q 1 1000 FLOAT 
 0.357809
 0.356879
 0.356384
 0.356759
 0.356162
 0.358481
 0.356484
 0.353895
 0.353647
 0.355981
 0.356545
 0.356324
 0.358157
 0.357421
 0.355966
 0.356617
 0.357737
 0.357421
 0.356049
 0.356804
 0.356446
 0.357375
 0.354471
 0.356988
 0.354841
 0.356871
 0.354919
 0.354072
 0.353958
 0.357435
 0.35355
 0.355731
 0.36041
 0.355545
 0.357597
 0.356672
 0.356461
 0.354627
 0.356427
 0.357248
 0.358089
 0.35691
 0.355995
 0.355953
 0.357739
 0.352568
 0.355436
 0.357575
 0.355817
 0.356081
 0.356884
 0.357705
 0.356042
 0.35675
 0.35588
 0.359891
 0.354845
 0.35529
 0.36041
 0.355394
 0.354681
 0.356383
 0.354426
 0.356201
 0.356558
 0.355123
 0.354682
 0.355398
 0.356698
 0.358789
 0.355678
 0.352996
 0.357912
 0.357841
 0.354562
 0.359364
 0.358217
 0.357042
 0.357833
 0.358455
 0.357522
 0.356701
 0.35767
 0.357544
 0.357964
 0.355809
 0.356091
 0.356775
 0.358492
 0.355252
 0.356435
 0.357787
 0.356805
 0.35747
 0.358082
 0.354431
 0.355844
 0.357359
 0.356429
 0.356547
 0.348259
 0.348155
 0.348078
 0.349699
 0.34888
 0.350012
 0.351339
 0.347899
 0.34951
 0.349263
 0.350686
 0.348873
 0.348639
 0.34738
 0.347478
 0.349307
 0.344569
 0.345977
 0.347645
 0.350053
 0.348568
 0.349063
 0.348469
 0.347164
 0.346365
 0.347801
 0.346071
 0.344537
 0.349003
 0.34648
 0.351251
 0.350067
 0.348097
 0.349229
 0.349082
 0.348359
 0.349689
 0.347142
 0.348506
 0.349108
 0.346436
 0.348146
 0.347665
 0.347949
 0.347898
 0.347161
 0.350645
 0.347064
 0.348451
 0.350381
 0.348208
 0.348899
 0.346892
 0.349106
 0.347885
 0.346347
 0.346515
 0.347214
 0.348031
 0.347847
 0.348416
 0.347737
 0.349217
 0.346966
 0.348319
 0.347825
 0.348638
 0.34921
 0.348184
 0.348029
 0.348908
 0.343783
 0.350081
 0.344767
 0.3462
 0.346509
 0.34775
 0.345585
 0.346679
 0.348653
 0.346791
 0.348907
 0.345892
 0.348776
 0.34874
 0.348584
 0.346443
 0.346369
 0.345511
 0.349351
 0.348883
 0.347134
 0.34959
 0.348649
 0.349932
 0.3483
 0.348015
 0.346808
 0.345722
 0.347167
 0.344692
 0.343052
 0.343178
 0.344388
 0.342206
 0.344768
 0.343467
 0.343013
 0.343163
 0.33942
 0.343809
 0.343559
 0.343209
 0.343736
 0.345477
 0.342938
 0.344542
 0.343446
 0.34282
 0.340125
 0.341405
 0.342109
 0.34296
 0.344582
 0.340415
 0.340078
 0.345726
 0.343557
 0.343999
 0.344242
 0.344065
 0.343596
 0.343748
 0.343858
 0.343639
 0.340058
 0.342134
 0.341943
 0.342779
 0.343124
 0.344315
 0.341156
 0.340709
 0.340432
 0.342213
 0.343898
 0.342799
 0.342524
 0.341848
 0.345313
 0.342522
 0.345649
 0.342134
 0.342248
 0.343585
 0.342139
 0.341894
 0.344239
 0.343682
 0.34392
 0.343384
 0.344476
 0.340202
 0.341425
 0.342036
 0.343389
 0.343864
 0.343069
 0.343086
 0.342739
 0.340685
 0.340797
 0.34256
 0.344507
 0.344585
 0.342778
 0.344294
 0.345721
 0.342597
 0.342894
 0.343047
 0.343835
 0.342836
 0.342163
 0.34263
 0.341165
 0.344614
 0.342249
 0.339609
 0.341526
 0.340569
 0.342257
 0.34372
 0.342396
 0.342826
 0.343579
 0.344182
 0.342265
 0.342472
 0.34039
 0.340608
 0.340494
 0.338556
 0.337588
 0.338797
 0.340748
 0.33953
 0.341237
 0.340672
 0.339585
 0.342073
 0.340952
 0.338015
 0.343007
 0.339906
 0.340612
 0.338718
 0.340315
 0.341093
 0.338831
 0.33932
 0.34041
 0.33845
 0.339901
 0.33885
 0.339575
 0.340089
 0.339418
 0.341793
 0.339361
 0.34065
 0.339013
 0.339906
 0.336368
 0.341086
 0.337744
 0.337862
 0.341706
 0.342517
 0.336412
 0.340421
 0.339458
 0.337309
 0.339557
 0.338783
 0.33858
 0.338689
 0.339133
 0.342117
 0.338568
 0.340767
 0.339497
 0.340529
 0.339162
 0.340772
 0.337259
 0.340558
 0.338194
 0.340027
 0.342361
 0.338318
 0.340581
 0.33939
 0.34162
 0.339012
 0.339155
 0.339289
 0.338972
 0.338088
 0.339728
 0.339353
 0.336998
 0.341455
 0.340575
 0.340689
 0.338993
 0.340527
 0.3437
 0.336039
 0.338771
 0.339345
 0.338009
 0.338377
 0.340283
 0.339273
 0.341078
 0.342679
 0.337665
 0.341053
 0.338982
 0.340124
 0.337971
 0.339789
 0.338232
 0.338772
 0.341126
 0.337917
 0.338998
 0.343015
 0.338189
 0.338461
 0.337293
 0.339195
 0.3405
 0.337038
 0.340137
 0.338167
 0.338006
 0.33824
 0.337103
 0.338469
 0.338161
 0.339132
 0.339057
 0.33834
 0.338714
 0.337603
 0.338805
 0.338861
 0.338822
 0.336948
 0.338895
 0.336872
 0.334902
 0.338387
 0.339883
 0.337299
 0.338977
 0.337411
 0.338685
 0.33791
 0.340392
 0.339828
 0.338861
 0.338648
 0.334834
 0.338323
 0.336935
 0.336328
 0.336291
 0.34169
 0.337296
 0.339102
 0.33961
 0.340355
 0.335791
 0.341453
 0.338215
 0.339692
 0.337905
 0.339306
 0.338604
 0.336725
 0.337004
 0.339631
 0.339697
 0.339161
 0.342101
 0.340079
 0.337602
 0.338125
 0.334959
 0.336753
 0.336914
 0.338269
 0.338791
 0.338833
 0.33942
 0.337317
 0.339114
 0.338439
 0.338963
 0.337763
 0.337848
 0.33954
 0.340268
 0.340592
 0.337737
 0.338877
 0.339764
 0.336705
 0.338561
 0.338674
 0.333304
 0.336213
 0.338186
 0.339638
 0.338299
 0.336838
 0.339
 0.339514
 0.340406
 0.339816
 0.33717
 0.337987
 0.336718
 0.33808
 0.339081
 0.337258
 0.337808
 0.337741
 0.338696
 0.340325
 0.337622
 0.336394
 0.337768
 0.338343
 0.33801
 0.337757
 0.337876
 0.338419
 0.339349
 0.337572
 0.335733
 0.334126
 0.338045
 0.337687
 0.338504
 0.338669
 0.337775
 0.339279
 0.337423
 0.338271
 0.339769
 0.338962
 0.33749
 0.340082
 0.340294
 0.339726
 0.334884
 0.33975
 0.335652
 0.339347
 0.339498
 0.338575
 0.339224
 0.337937
 0.336108
 0.340365
 0.337201
 0.339935
 0.338029
 0.337815
 0.339173
 0.336869
 0.336596
 0.337273
 0.339584
 0.340659
 0.337252
 0.339503
 0.337705
 0.336593
 0.336434
 0.336642
 0.338929
 0.336472
 0.337202
 0.337958
 0.340191
 0.336149
 0.335599
 0.338923
 0.338363
 0.338665
 0.335281
 0.339217
 0.337795
 0.339124
 0.338391
 0.340316
 0.339905
 0.339283
 0.340334
 0.336545
 0.341351
 0.341367
 0.338583
 0.335098
 0.337469
 0.339085
 0.338581
 0.338659
 0.339346
 0.338755
 0.338146
 0.33971
 0.336903
 0.337676
 0.3409
 0.340003
 0.338167
 0.336167
 0.33718
 0.337892
 0.339186
 0.33833
 0.337665
 0.339347
 0.336098
 0.340378
 0.339614
 0.340565
 0.337937
 0.340464
 0.339045
 0.340185
 0.34116
 0.342314
 0.339566
 0.339365
 0.341002
 0.338695
 0.338414
 0.337155
 0.340114
 0.340536
 0.34258
 0.336677
 0.340552
 0.340117
 0.34123
 0.339465
 0.342563
 0.339935
 0.338361
 0.339855
 0.338243
 0.338238
 0.340648
 0.33998
 0.339101
 0.338738
 0.338968
 0.33968
 0.338319
 0.340553
 0.33652
 0.339996
 0.341393
 0.339672
 0.339148
 0.339353
 0.340558
 0.339374
 0.338844
 0.338423
 0.339965
 0.338526
 0.338805
 0.341084
 0.342119
 0.341194
 0.339875
 0.339697
 0.341449
 0.340069
 0.341058
 0.338255
 0.339673
 0.337251
 0.339689
 0.341554
 0.339877
 0.340571
 0.339574
 0.339525
 0.339442
 0.335182
 0.340231
 0.339289
 0.338934
 0.338599
 0.338621
 0.340564
 0.339823
 0.341991
 0.339849
 0.339673
 0.33952
 0.339154
 0.339148
 0.339067
 0.338452
 0.337755
 0.340129
 0.33963
 0.339659
 0.340556
 0.339188
 0.340489
 0.33902
 0.338883
 0.341275
 0.340039
 0.340288
 0.337337
 0.34144
 0.337978
 0.338585
 0.343253
 0.342651
 0.343481
 0.340854
 0.341967
 0.343365
 0.345072
 0.344707
 0.345273
 0.341324
 0.342583
 0.340167
 0.342169
 0.343482
 0.34232
 0.340786
 0.340979
 0.342914
 0.341241
 0.343423
 0.344158
 0.342428
 0.342582
 0.34154
 0.343512
 0.342216
 0.343375
 0.343668
 0.342696
 0.340261
 0.344013
 0.342513
 0.34431
 0.343396
 0.3429
 0.341468
 0.342128
 0.344162
 0.340963
 0.342639
 0.344524
 0.342639
 0.343639
 0.343609
 0.342046
 0.342116
 0.341929
 0.342334
 0.342152
 0.343211
 0.341904
 0.342325
 0.343294
 0.343165
 0.342934
 0.345062
 0.341309
 0.343013
 0.344757
 0.342091
 0.343433
 0.341459
 0.342917
 0.344024
 0.343029
 0.342981
 0.342986
 0.341596
 0.341428
 0.341733
 0.34344
 0.342254
 0.344678
 0.342049
 0.344455
 0.34307
 0.343355
 0.343846
 0.341888
 0.342066
 0.34362
 0.341875
 0.341918
 0.339568
 0.341981
 0.342954
 0.345647
 0.344395
 0.343351
 0.344654
 0.34116
 0.343236
 0.343927
 0.343584
 0.344838
 0.341421
 0.345636
 0.343065
 0.3429
 0.344804
 0.347947
 0.346831
 0.348989
 0.345142
 0.34983
 0.348631
 0.348996
 0.350392
 0.348383
 0.346889
 0.348348
 0.346173
 0.347904
 0.34705
 0.347764
 0.347306
 0.349281
 0.34686
 0.348151
 0.344835
 0.348437
 0.349746
 0.346599
 0.346117
 0.347888
 0.350395
 0.346156
 0.347969
 0.349034
 0.347759
 0.348669
 0.347039
 0.348032
 0.349408
 0.347448
 0.348668
 0.3443
 0.350922
 0.347004
 0.349621
 0.345823
 0.347841
 0.346829
 0.347626
 0.347652
 0.347465
 0.347781
 0.348678
 0.348112
 0.347953
 0.347903
 0.348206
 0.351134
 0.349783
 0.345701
 0.346607
 0.348485
 0.345558
 0.347486
 0.347295
 0.348933
 0.350742
 0.345294
 0.351139
 0.349395
 0.347801
 0.346852
 0.345432
 0.348956
 0.347473
 0.345918
 0.34791
 0.349823
 0.346151
 0.347465
 0.346978
 0.347535
 0.351097
 0.34753
 0.346623
 0.347875
 0.345763
 0.347947
 0.345679
 0.347414
 0.345164
 0.349428
 0.34955
 0.348006
 0.348367
 0.350325
 0.347502
 0.348239
 0.347165
 0.348287
 0.34732
 0.345956
 0.344978
 0.349557
 0.349838
 0.357093
 0.355311
 0.356005
 0.355802
 0.357952
 0.355829
 0.355564
 0.359179
 0.3584
 0.358887
 0.356153
 0.357279
 0.356648
 0.351484
 0.356254
 0.356081
 0.357993
 0.355258
 0.35551
 0.354127
 0.355256
 0.358987
 0.354629
 0.356583
 0.35768
 0.356622
 0.357892
 0.358801
 0.35776
 0.356655
 0.356582
 0.356913
 0.357148
 0.357965
 0.355491
 0.356005
 0.358007
 0.358686
 0.357145
 0.358037
 0.355647
 0.354196
 0.355834
 0.353659
 0.356422
 0.356689
 0.358338
 0.355452
 0.35578
 0.35714
 0.355902
 0.357624
 0.35526
 0.357784
 0.357728
 0.358168
 0.356006
 0.357844
 0.356893
 0.357963
 0.358754
 0.357863
 0.35808
 0.3538
 0.357041
 0.358367
 0.356705
 0.356212
 0.356507
 0.35816
 0.354548
 0.35447
 0.35596
 0.356016
 0.356164
 0.35889
 0.357838
 0.354636
 0.356724
 0.354531
 0.35767
 0.356365
 0.355038
 0.358527
 0.357264
 0.357524
 0.355901
 0.355507
 0.357928
 0.35705
 0.354568
 0.358172
 0.358126
 0.35667
 0.355246
 0.360545
 0.356101
 0.358175
 0.356555
 0.355499

Vol_HEAT_Q 1 1000 FLOAT 
 0.000357809
 0.000356879
 0.000356384
 0.000356759
 0.000356162
 0.000358481
 0.000356484
 0.000353895
 0.000353647
 0.000355981
 0.000356545
 0.000356324
 0.000358157
 0.000357421
 0.000355966
 0.000356617
 0.000357737
 0.000357421
 0.000356049
 0.000356804
 0.000356446
 0.000357375
 0.000354471
 0.000356988
 0.000354841
 0.000356871
 0.000354919
 0.000354072
 0.000353958
 0.000357435
 0.00035355
 0.000355731
 0.00036041
 0.000355545
 0.000357597
 0.000356672
 0.000356461
 0.000354627
 0.000356427
 0.000357248
 0.000358089
 0.00035691
 0.000355995
 0.000355953
 0.000357739
 0.000352568
 0.000355436
 0.000357575
 0.000355817
 0.000356081
 0.000356884
 0.000357705
 0.000356042
 0.00035675
 0.00035588
 0.000359891
 0.000354845
 0.00035529
 0.00036041
 0.000355394
 0.000354681
 0.000356383
 0.000354426
 0.000356201
 0.000356558
 0.000355123
 0.000354682
 0.000355398
 0.000356698
 0.000358789
 0.000355678
 0.000352996
 0.000357912
 0.000357841
 0.000354562
 0.000359364
 0.000358217
 0.000357042
 0.000357833
 0.000358455
 0.000357522
 0.000356701
 0.00035767
 0.000357544
 0.000357964
 0.000355809
 0.000356091
 0.000356775
 0.000358492
 0.000355252
 0.000356435
 0.000357787
 0.000356805
 0.00035747
 0.000358082
 0.000354431
 0.000355844
 0.000357359
 0.000356429
 0.000356547
 0.000348259
 0.000348155
 0.000348078
 0.000349699
 0.00034888
 0.000350012
 0.000351339
 0.000347899
 0.00034951
 0.000349263
 0.000350686
 0.000348873
 0.000348639
 0.00034738
 0.000347478
 0.000349307
 0.000344569
 0.000345977
 0.000347645
 0.000350053
 0.000348568
 0.000349063
 0.000348469
 0.000347164
 0.000346365
 0.000347801
 0.000346071
 0.000344537
 0.000349003
 0.00034648
 0.000351251
 0.000350067
 0.000348097
 0.000349229
 0.000349082
 0.000348359
 0.000349689
 0.000347142
 0.000348506
 0.000349108
 0.000346436
 0.000348146
 0.000347665
 0.000347949
 0.000347898
 0.000347161
 0.000350645
 0.000347064
 0.000348451
 0.000350381
 0.000348208
 0.000348899
 0.000346892
 0.000349106
 0.000347885
 0.000346347
 0.000346515
 0.000347214
 0.000348031
 0.000347847
 0.000348416
 0.000347737
 0.000349217
 0.000346966
 0.000348319
 0.000347825
 0.000348638
 0.00034921
 0.000348184
 0.000348029
 0.000348908
 0.000343783
 0.000350081
 0.000344767
 0.0003462
 0.000346509
 0.00034775
 0.000345585
 0.000346679
 0.000348653
 0.000346791
 0.000348907
 0.000345892
 0.000348776
 0.00034874
 0.000348584
 0.000346443
 0.000346369
 0.000345511
 0.000349351
 0.000348883
 0.000347134
 0.00034959
 0.000348649
 0.000349932
 0.0003483
 0.000348015
 0.000346808
 0.000345722
 0.000347167
 0.000344692
 0.000343052
 0.000343178
 0.000344388
 0.000342206
 0.000344768
 0.000343467
 0.000343013
 0.000343163
 0.00033942
 0.000343809
 0.000343559
 0.000343209
 0.000343736
 0.000345477
 0.000342938
 0.000344542
 0.000343446
 0.00034282
 0.000340125
 0.000341405
 0.000342109
 0.00034296
 0.000344582
 0.000340415
 0.000340078
 0.000345726
 0.000343557
 0.000343999
 0.000344242
 0.000344065
 0.000343596
 0.000343748
 0.000343858
 0.000343639
 0.000340058
 0.000342134
 0.000341943
 0.000342779
 0.000343124
 0.000344315
 0.000341156
 0.000340709
 0.000340432
 0.000342213
 0.000343898
 0.000342799
 0.000342524
 0.000341848
 0.000345313
 0.000342522
 0.000345649
 0.000342134
 0.000342248
 0.000343585
 0.000342139
 0.000341894
 0.000344239
 0.000343682
 0.00034392
 0.000343384
 0.000344476
 0.000340202
 0.000341425
 0.000342036
 0.000343389
 0.000343864
 0.000343069
 0.000343086
 0.000342739
 0.000340685
 0.000340797
 0.00034256
 0.000344507
 0.000344585
 0.000342778
 0.000344294
 0.000345721
 0.000342597
 0.000342894
 0.000343047
 0.000343835
 0.000342836
 0.000342163
 0.00034263
 0.000341165
 0.000344614
 0.000342249
 0.000339609
 0.000341526
 0.000340569
 0.000342257
 0.00034372
 0.000342396
 0.000342826
 0.000343579
 0.000344182
 0.000342265
 0.000342472
 0.00034039
 0.000340608
 0.000340494
 0.000338556
 0.000337588
 0.000338797
 0.000340748
 0.00033953
 0.000341237
 0.000340672
 0.000339585
 0.000342073
 0.000340952
 0.000338015
 0.000343007
 0.000339906
 0.000340612
 0.000338718
 0.000340315
 0.000341093
 0.000338831
 0.00033932
 0.00034041
 0.00033845
 0.000339901
 0.00033885
 0.000339575
 0.000340089
 0.000339418
 0.000341793
 0.000339361
 0.00034065
 0.000339013
 0.000339906
 0.000336368
 0.000341086
 0.000337744
 0.000337862
 0.000341706
 0.000342517
 0.000336412
 0.000340421
 0.000339458
 0.000337309
 0.000339557
 0.000338783
 0.00033858
 0.000338689
 0.000339133
 0.000342117
 0.000338568
 0.000340767
 0.000339497
 0.000340529
 0.000339162
 0.000340772
 0.000337259
 0.000340558
 0.000338194
 0.000340027
 0.000342361
 0.000338318
 0.000340581
 0.00033939
 0.00034162
 0.000339012
 0.000339155
 0.000339289
 0.000338972
 0.000338088
 0.000339728
 0.000339353
 0.000336998
 0.000341455
 0.000340575
 0.000340689
 0.000338993
 0.000340527
 0.0003437
 0.000336039
 0.000338771
 0.000339345
 0.000338009
 0.000338377
 0.000340283
 0.000339273
 0.000341078
 0.000342679
 0.000337665
 0.000341053
 0.000338982
 0.000340124
 0.000337971
 0.000339789
 0.000338232
 0.000338772
 0.000341126
 0.000337917
 0.000338998
 0.000343015
 0.000338189
 0.000338461
 0.000337293
 0.000339195
 0.0003405
 0.000337038
 0.000340137
 0.000338167
 0.000338006
 0.00033824
 0.000337103
 0.000338469
 0.000338161
 0.000339132
 0.000339057
 0.00033834
 0.000338714
 0.000337603
 0.000338805
 0.000338861
 0.000338822
 0.000336948
 0.000338895
 0.000336872
 0.000334902
 0.000338387
 0.000339883
 0.000337299
 0.000338977
 0.000337411
 0.000338685
 0.00033791
 0.000340392
 0.000339828
 0.000338861
 0.000338648
 0.000334834
 0.000338323
 0.000336935
 0.000336328
 0.000336291
 0.00034169
 0.000337296
 0.000339102
 0.00033961
 0.000340355
 0.000335791
 0.000341453
 0.000338215
 0.000339692
 0.000337905
 0.000339306
 0.000338604
 0.000336725
 0.000337004
 0.000339631
 0.000339697
 0.000339161
 0.000342101
 0.000340079
 0.000337602
 0.000338125
 0.000334959
 0.000336753
 0.000336914
 0.000338269
 0.000338791
 0.000338833
 0.00033942
 0.000337317
 0.000339114
 0.000338439
 0.000338963
 0.000337763
 0.000337848
 0.00033954
 0.000340268
 0.000340592
 0.000337737
 0.000338877
 0.000339764
 0.000336705
 0.000338561
 0.000338674
 0.000333304
 0.000336213
 0.000338186
 0.000339638
 0.000338299
 0.000336838
 0.000339
 0.000339514
 0.000340406
 0.000339816
 0.00033717
 0.000337987
 0.000336718
 0.00033808
 0.000339081
 0.000337258
 0.000337808
 0.000337741
 0.000338696
 0.000340325
 0.000337622
 0.000336394
 0.000337768
 0.000338343
 0.00033801
 0.000337757
 0.000337876
 0.000338419
 0.000339349
 0.000337572
 0.000335733
 0.000334126
 0.000338045
 0.000337687
 0.000338504
 0.000338669
 0.000337775
 0.000339279
 0.000337423
 0.000338271
 0.000339769
 0.000338962
 0.00033749
 0.000340082
 0.000340294
 0.000339726
 0.000334884
 0.00033975
 0.000335652
 0.000339347
 0.000339498
 0.000338575
 0.000339224
 0.000337937
 0.000336108
 0.000340365
 0.000337201
 0.000339935
 0.000338029
 0.000337815
 0.000339173
 0.000336869
 0.000336596
 0.000337273
 0.000339584
 0.000340659
 0.000337252
 0.000339503
 0.000337705
 0.000336593
 0.000336434
 0.000336642
 0.000338929
 0.000336472
 0.000337202
 0.000337958
 0.000340191
 0.000336149
 0.000335599
 0.000338923
 0.000338363
 0.000338665
 0.000335281
 0.000339217
 0.000337795
 0.000339124
 0.000338391
 0.000340316
 0.000339905
 0.000339283
 0.000340334
 0.000336545
 0.000341351
 0.000341367
 0.000338583
 0.000335098
 0.000337469
 0.000339085
 0.000338581
 0.000338659
 0.000339346
 0.000338755
 0.000338146
 0.00033971
 0.000336903
 0.000337676
 0.0003409
 0.000340003
 0.000338167
 0.000336167
 0.00033718
 0.000337892
 0.000339186
 0.00033833
 0.000337665
 0.000339347
 0.000336098
 0.000340378
 0.000339614
 0.000340565
 0.000337937
 0.000340464
 0.000339045
 0.000340185
 0.00034116
 0.000342314
 0.000339566
 0.000339365
 0.000341002
 0.000338695
 0.000338414
 0.000337155
 0.000340114
 0.000340536
 0.00034258
 0.000336677
 0.000340552
 0.000340117
 0.00034123
 0.000339465
 0.000342563
 0.000339935
 0.000338361
 0.000339855
 0.000338243
 0.000338238
 0.000340648
 0.00033998
 0.000339101
 0.000338738
 0.000338968
 0.00033968
 0.000338319
 0.000340553
 0.00033652
 0.000339996
 0.000341393
 0.000339672
 0.000339148
 0.000339353
 0.000340558
 0.000339374
 0.000338844
 0.000338423
 0.000339965
 0.000338526
 0.000338805
 0.000341084
 0.000342119
 0.000341194
 0.000339875
 0.000339697
 0.000341449
 0.000340069
 0.000341058
 0.000338255
 0.000339673
 0.000337251
 0.000339689
 0.000341554
 0.000339877
 0.000340571
 0.000339574
 0.000339525
 0.000339442
 0.000335182
 0.000340231
 0.000339289
 0.000338934
 0.000338599
 0.000338621
 0.000340564
 0.000339823
 0.000341991
 0.000339849
 0.000339673
 0.00033952
 0.000339154
 0.000339148
 0.000339067
 0.000338452
 0.000337755
 0.000340129
 0.00033963
 0.000339659
 0.000340556
 0.000339188
 0.000340489
 0.00033902
 0.000338883
 0.000341275
 0.000340039
 0.000340288
 0.000337337
 0.00034144
 0.000337978
 0.000338585
 0.000343253
 0.000342651
 0.000343481
 0.000340854
 0.000341967
 0.000343365
 0.000345072
 0.000344707
 0.000345273
 0.000341324
 0.000342583
 0.000340167
 0.000342169
 0.000343482
 0.00034232
 0.000340786
 0.000340979
 0.000342914
 0.000341241
 0.000343423
 0.000344158
 0.000342428
 0.000342582
 0.00034154
 0.000343512
 0.000342216
 0.000343375
 0.000343668
 0.000342696
 0.000340261
 0.000344013
 0.000342513
 0.00034431
 0.000343396
 0.0003429
 0.000341468
 0.000342128
 0.000344162
 0.000340963
 0.000342639
 0.000344524
 0.000342639
 0.000343639
 0.000343609
 0.000342046
 0.000342116
 0.000341929
 0.000342334
 0.000342152
 0.000343211
 0.000341904
 0.000342325
 0.000343294
 0.000343165
 0.000342934
 0.000345062
 0.000341309
 0.000343013
 0.000344757
 0.000342091
 0.000343433
 0.000341459
 0.000342917
 0.000344024
 0.000343029
 0.000342981
 0.000342986
 0.000341596
 0.000341428
 0.000341733
 0.00034344
 0.000342254
 0.000344678
 0.000342049
 0.000344455
 0.00034307
 0.000343355