# vtk DataFile Version 2.0
Three-D cube divergence of heat flux and Q in volume elements
ASCII
DATASET UNSTRUCTURED_GRID

POINTS  1331  FLOAT
 -0.5 -0.5 -0.5
 -0.4 -0.5 -0.5
 -0.3 -0.5 -0.5
 -0.2 -0.5 -0.5
 -0.1 -0.5 -0.5
 0 -0.5 -0.5
 0.1 -0.5 -0.5
 0.2 -0.5 -0.5
 0.3 -0.5 -0.5
 0.4 -0.5 -0.5
 0.5 -0.5 -0.5
 -0.5 -0.4 -0.5
 -0.4 -0.4 -0.5
 -0.3 -0.4 -0.5
 -0.2 -0.4 -0.5
 -0.1 -0.4 -0.5
 0 -0.4 -0.5
 0.1 -0.4 -0.5
 0.2 -0.4 -0.5
 0.3 -0.4 -0.5
 0.4 -0.4 -0.5
 0.5 -0.4 -0.5
 -0.5 -0.3 -0.5
 -0.4 -0.3 -0.5
 -0.3 -0.3 -0.5
 -0.2 -0.3 -0.5
 -0.1 -0.3 -0.5
 0 -0.3 -0.5
 0.1 -0.3 -0.5
 0.2 -0.3 -0.5
 0.3 -0.3 -0.5
 0.4 -0.3 -0.5
 0.5 -0.3 -0.5
 -0.5 -0.2 -0.5
 -0.4 -0.2 -0.5
 -0.3 -0.2 -0.5
 -0.2 -0.2 -0.5
 -0.1 -0.2 -0.5
 0 -0.2 -0.5
 0.1 -0.2 -0.5
 0.2 -0.2 -0.5
 0.3 -0.2 -0.5
 0.4 -0.2 -0.5
 0.5 -0.2 -0.5
 -0.5 -0.1 -0.5
 -0.4 -0.1 -0.5
 -0.3 -0.1 -0.5
 -0.2 -0.1 -0.5
 -0.1 -0.1 -0.5
 0 -0.1 -0.5
 0.1 -0.1 -0.5
 0.2 -0.1 -0.5
 0.3 -0.1 -0.5
 0.4 -0.1 -0.5
 0.5 -0.1 -0.5
 -0.5 0 -0.5
 -0.4 0 -0.5
 -0.3 0 -0.5
 -0.2 0 -0.5
 -0.1 0 -0.5
 0 0 -0.5
 0.1 0 -0.5
 0.2 0 -0.5
 0.3 0 -0.5
 0.4 0 -0.5
 0.5 0 -0.5
 -0.5 0.1 -0.5
 -0.4 0.1 -0.5
 -0.3 0.1 -0.5
 -0.2 0.1 -0.5
 -0.1 0.1 -0.5
 0 0.1 -0.5
 0.1 0.1 -0.5
 0.2 0.1 -0.5
 0.3 0.1 -0.5
 0.4 0.1 -0.5
 0.5 0.1 -0.5
 -0.5 0.2 -0.5
 -0.4 0.2 -0.5
 -0.3 0.2 -0.5
 -0.2 0.2 -0.5
 -0.1 0.2 -0.5
 0 0.2 -0.5
 0.1 0.2 -0.5
 0.2 0.2 -0.5
 0.3 0.2 -0.5
 0.4 0.2 -0.5
 0.5 0.2 -0.5
 -0.5 0.3 -0.5
 -0.4 0.3 -0.5
 -0.3 0.3 -0.5
 -0.2 0.3 -0.5
 -0.1 0.3 -0.5
 0 0.3 -0.5
 0.1 0.3 -0.5
 0.2 0.3 -0.5
 0.3 0.3 -0.5
 0.4 0.3 -0.5
 0.5 0.3 -0.5
 -0.5 0.4 -0.5
 -0.4 0.4 -0.5
 -0.3 0.4 -0.5
 -0.2 0.4 -0.5
 -0.1 0.4 -0.5
 0 0.4 -0.5
 0.1 0.4 -0.5
 0.2 0.4 -0.5
 0.3 0.4 -0.5
 0.4 0.4 -0.5
 0.5 0.4 -0.5
 -0.5 0.5 -0.5
 -0.4 0.5 -0.5
 -0.3 0.5 -0.5
 -0.2 0.5 -0.5
 -0.1 0.5 -0.5
 0 0.5 -0.5
 0.1 0.5 -0.5
 0.2 0.5 -0.5
 0.3 0.5 -0.5
 0.4 0.5 -0.5
 0.5 0.5 -0.5
 -0.5 -0.5 -0.4
 -0.4 -0.5 -0.4
 -0.3 -0.5 -0.4
 -0.2 -0.5 -0.4
 -0.1 -0.5 -0.4
 0 -0.5 -0.4
 0.1 -0.5 -0.4
 0.2 -0.5 -0.4
 0.3 -0.5 -0.4
 0.4 -0.5 -0.4
 0.5 -0.5 -0.4
 -0.5 -0.4 -0.4
 -0.4 -0.4 -0.4
 -0.3 -0.4 -0.4
 -0.2 -0.4 -0.4
 -0.1 -0.4 -0.4
 0 -0.4 -0.4
 0.1 -0.4 -0.4
 0.2 -0.4 -0.4
 0.3 -0.4 -0.4
 0.4 -0.4 -0.4
 0.5 -0.4 -0.4
 -0.5 -0.3 -0.4
 -0.4 -0.3 -0.4
 -0.3 -0.3 -0.4
 -0.2 -0.3 -0.4
 -0.1 -0.3 -0.4
 0 -0.3 -0.4
 0.1 -0.3 -0.4
 0.2 -0.3 -0.4
 0.3 -0.3 -0.4
 0.4 -0.3 -0.4
 0.5 -0.3 -0.4
 -0.5 -0.2 -0.4
 -0.4 -0.2 -0.4
 -0.3 -0.2 -0.4
 -0.2 -0.2 -0.4
 -0.1 -0.2 -0.4
 0 -0.2 -0.4
 0.1 -0.2 -0.4
 0.2 -0.2 -0.4
 0.3 -0.2 -0.4
 0.4 -0.2 -0.4
 0.5 -0.2 -0.4
 -0.5 -0.1 -0.4
 -0.4 -0.1 -0.4
 -0.3 -0.1 -0.4
 -0.2 -0.1 -0.4
 -0.1 -0.1 -0.4
 0 -0.1 -0.4
 0.1 -0.1 -0.4
 0.2 -0.1 -0.4
 0.3 -0.1 -0.4
 0.4 -0.1 -0.4
 0.5 -0.1 -0.4
 -0.5 0 -0.4
 -0.4 0 -0.4
 -0.3 0 -0.4
 -0.2 0 -0.4
 -0.1 0 -0.4
 0 0 -0.4
 0.1 0 -0.4
 0.2 0 -0.4
 0.3 0 -0.4
 0.4 0 -0.4
 0.5 0 -0.4
 -0.5 0.1 -0.4
 -0.4 0.1 -0.4
 -0.3 0.1 -0.4
 -0.2 0.1 -0.4
 -0.1 0.1 -0.4
 0 0.1 -0.4
 0.1 0.1 -0.4
 0.2 0.1 -0.4
 0.3 0.1 -0.4
 0.4 0.1 -0.4
 0.5 0.1 -0.4
 -0.5 0.2 -0.4
 -0.4 0.2 -0.4
 -0.3 0.2 -0.4
 -0.2 0.2 -0.4
 -0.1 0.2 -0.4
 0 0.2 -0.4
 0.1 0.2 -0.4
 0.2 0.2 -0.4
 0.3 0.2 -0.4
 0.4 0.2 -0.4
 0.5 0.2 -0.4
 -0.5 0.3 -0.4
 -0.4 0.3 -0.4
 -0.3 0.3 -0.4
 -0.2 0.3 -0.4
 -0.1 0.3 -0.4
 0 0.3 -0.4
 0.1 0.3 -0.4
 0.2 0.3 -0.4
 0.3 0.3 -0.4
 0.4 0.3 -0.4
 0.5 0.3 -0.4
 -0.5 0.4 -0.4
 -0.4 0.4 -0.4
 -0.3 0.4 -0.4
 -0.2 0.4 -0.4
 -0.1 0.4 -0.4
 0 0.4 -0.4
 0.1 0.4 -0.4
 0.2 0.4 -0.4
 0.3 0.4 -0.4
 0.4 0.4 -0.4
 0.5 0.4 -0.4
 -0.5 0.5 -0.4
 -0.4 0.5 -0.4
 -0.3 0.5 -0.4
 -0.2 0.5 -0.4
 -0.1 0.5 -0.4
 0 0.5 -0.4
 0.1 0.5 -0.4
 0.2 0.5 -0.4
 0.3 0.5 -0.4
 0.4 0.5 -0.4
 0.5 0.5 -0.4
 -0.5 -0.5 -0.3
 -0.4 -0.5 -0.3
 -0.3 -0.5 -0.3
 -0.2 -0.5 -0.3
 -0.1 -0.5 -0.3
 0 -0.5 -0.3
 0.1 -0.5 -0.3
 0.2 -0.5 -0.3
 0.3 -0.5 -0.3
 0.4 -0.5 -0.3
 0.5 -0.5 -0.3
 -0.5 -0.4 -0.3
 -0.4 -0.4 -0.3
 -0.3 -0.4 -0.3
 -0.2 -0.4 -0.3
 -0.1 -0.4 -0.3
 0 -0.4 -0.3
 0.1 -0.4 -0.3
 0.2 -0.4 -0.3
 0.3 -0.4 -0.3
 0.4 -0.4 -0.3
 0.5 -0.4 -0.3
 -0.5 -0.3 -0.3
 -0.4 -0.3 -0.3
 -0.3 -0.3 -0.3
 -0.2 -0.3 -0.3
 -0.1 -0.3 -0.3
 0 -0.3 -0.3
 0.1 -0.3 -0.3
 0.2 -0.3 -0.3
 0.3 -0.3 -0.3
 0.4 -0.3 -0.3
 0.5 -0.3 -0.3
 -0.5 -0.2 -0.3
 -0.4 -0.2 -0.3
 -0.3 -0.2 -0.3
 -0.2 -0.2 -0.3
 -0.1 -0.2 -0.3
 0 -0.2 -0.3
 0.1 -0.2 -0.3
 0.2 -0.2 -0.3
 0.3 -0.2 -0.3
 0.4 -0.2 -0.3
 0.5 -0.2 -0.3
 -0.5 -0.1 -0.3
 -0.4 -0.1 -0.3
 -0.3 -0.1 -0.3
 -0.2 -0.1 -0.3
 -0.1 -0.1 -0.3
 0 -0.1 -0.3
 0.1 -0.1 -0.3
 0.2 -0.1 -0.3
 0.3 -0.1 -0.3
 0.4 -0.1 -0.3
 0.5 -0.1 -0.3
 -0.5 0 -0.3
 -0.4 0 -0.3
 -0.3 0 -0.3
 -0.2 0 -0.3
 -0.1 0 -0.3
 0 0 -0.3
 0.1 0 -0.3
 0.2 0 -0.3
 0.3 0 -0.3
 0.4 0 -0.3
 0.5 0 -0.3
 -0.5 0.1 -0.3
 -0.4 0.1 -0.3
 -0.3 0.1 -0.3
 -0.2 0.1 -0.3
 -0.1 0.1 -0.3
 0 0.1 -0.3
 0.1 0.1 -0.3
 0.2 0.1 -0.3
 0.3 0.1 -0.3
 0.4 0.1 -0.3
 0.5 0.1 -0.3
 -0.5 0.2 -0.3
 -0.4 0.2 -0.3
 -0.3 0.2 -0.3
 -0.2 0.2 -0.3
 -0.1 0.2 -0.3
 0 0.2 -0.3
 0.1 0.2 -0.3
 0.2 0.2 -0.3
 0.3 0.2 -0.3
 0.4 0.2 -0.3
 0.5 0.2 -0.3
 -0.5 0.3 -0.3
 -0.4 0.3 -0.3
 -0.3 0.3 -0.3
 -0.2 0.3 -0.3
 -0.1 0.3 -0.3
 0 0.3 -0.3
 0.1 0.3 -0.3
 0.2 0.3 -0.3
 0.3 0.3 -0.3
 0.4 0.3 -0.3
 0.5 0.3 -0.3
 -0.5 0.4 -0.3
 -0.4 0.4 -0.3
 -0.3 0.4 -0.3
 -0.2 0.4 -0.3
 -0.1 0.4 -0.3
 0 0.4 -0.3
 0.1 0.4 -0.3
 0.2 0.4 -0.3
 0.3 0.4 -0.3
 0.4 0.4 -0.3
 0.5 0.4 -0.3
 -0.5 0.5 -0.3
 -0.4 0.5 -0.3
 -0.3 0.5 -0.3
 -0.2 0.5 -0.3
 -0.1 0.5 -0.3
 0 0.5 -0.3
 0.1 0.5 -0.3
 0.2 0.5 -0.3
 0.3 0.5 -0.3
 0.4 0.5 -0.3
 0.5 0.5 -0.3
 -0.5 -0.5 -0.2
 -0.4 -0.5 -0.2
 -0.3 -0.5 -0.2
 -0.2 -0.5 -0.2
 -0.1 -0.5 -0.2
 0 -0.5 -0.2
 0.1 -0.5 -0.2
 0.2 -0.5 -0.2
 0.3 -0.5 -0.2
 0.4 -0.5 -0.2
 0.5 -0.5 -0.2
 -0.5 -0.4 -0.2
 -0.4 -0.4 -0.2
 -0.3 -0.4 -0.2
 -0.2 -0.4 -0.2
 -0.1 -0.4 -0.2
 0 -0.4 -0.2
 0.1 -0.4 -0.2
 0.2 -0.4 -0.2
 0.3 -0.4 -0.2
 0.4 -0.4 -0.2
 0.5 -0.4 -0.2
 -0.5 -0.3 -0.2
 -0.4 -0.3 -0.2
 -0.3 -0.3 -0.2
 -0.2 -0.3 -0.2
 -0.1 -0.3 -0.2
 0 -0.3 -0.2
 0.1 -0.3 -0.2
 0.2 -0.3 -0.2
 0.3 -0.3 -0.2
 0.4 -0.3 -0.2
 0.5 -0.3 -0.2
 -0.5 -0.2 -0.2
 -0.4 -0.2 -0.2
 -0.3 -0.2 -0.2
 -0.2 -0.2 -0.2
 -0.1 -0.2 -0.2
 0 -0.2 -0.2
 0.1 -0.2 -0.2
 0.2 -0.2 -0.2
 0.3 -0.2 -0.2
 0.4 -0.2 -0.2
 0.5 -0.2 -0.2
 -0.5 -0.1 -0.2
 -0.4 -0.1 -0.2
 -0.3 -0.1 -0.2
 -0.2 -0.1 -0.2
 -0.1 -0.1 -0.2
 0 -0.1 -0.2
 0.1 -0.1 -0.2
 0.2 -0.1 -0.2
 0.3 -0.1 -0.2
 0.4 -0.1 -0.2
 0.5 -0.1 -0.2
 -0.5 0 -0.2
 -0.4 0 -0.2
 -0.3 0 -0.2
 -0.2 0 -0.2
 -0.1 0 -0.2
 0 0 -0.2
 0.1 0 -0.2
 0.2 0 -0.2
 0.3 0 -0.2
 0.4 0 -0.2
 0.5 0 -0.2
 -0.5 0.1 -0.2
 -0.4 0.1 -0.2
 -0.3 0.1 -0.2
 -0.2 0.1 -0.2
 -0.1 0.1 -0.2
 0 0.1 -0.2
 0.1 0.1 -0.2
 0.2 0.1 -0.2
 0.3 0.1 -0.2
 0.4 0.1 -0.2
 0.5 0.1 -0.2
 -0.5 0.2 -0.2
 -0.4 0.2 -0.2
 -0.3 0.2 -0.2
 -0.2 0.2 -0.2
 -0.1 0.2 -0.2
 0 0.2 -0.2
 0.1 0.2 -0.2
 0.2 0.2 -0.2
 0.3 0.2 -0.2
 0.4 0.2 -0.2
 0.5 0.2 -0.2
 -0.5 0.3 -0.2
 -0.4 0.3 -0.2
 -0.3 0.3 -0.2
 -0.2 0.3 -0.2
 -0.1 0.3 -0.2
 0 0.3 -0.2
 0.1 0.3 -0.2
 0.2 0.3 -0.2
 0.3 0.3 -0.2
 0.4 0.3 -0.2
 0.5 0.3 -0.2
 -0.5 0.4 -0.2
 -0.4 0.4 -0.2
 -0.3 0.4 -0.2
 -0.2 0.4 -0.2
 -0.1 0.4 -0.2
 0 0.4 -0.2
 0.1 0.4 -0.2
 0.2 0.4 -0.2
 0.3 0.4 -0.2
 0.4 0.4 -0.2
 0.5 0.4 -0.2
 -0.5 0.5 -0.2
 -0.4 0.5 -0.2
 -0.3 0.5 -0.2
 -0.2 0.5 -0.2
 -0.1 0.5 -0.2
 0 0.5 -0.2
 0.1 0.5 -0.2
 0.2 0.5 -0.2
 0.3 0.5 -0.2
 0.4 0.5 -0.2
 0.5 0.5 -0.2
 -0.5 -0.5 -0.1
 -0.4 -0.5 -0.1
 -0.3 -0.5 -0.1
 -0.2 -0.5 -0.1
 -0.1 -0.5 -0.1
 0 -0.5 -0.1
 0.1 -0.5 -0.1
 0.2 -0.5 -0.1
 0.3 -0.5 -0.1
 0.4 -0.5 -0.1
 0.5 -0.5 -0.1
 -0.5 -0.4 -0.1
 -0.4 -0.4 -0.1
 -0.3 -0.4 -0.1
 -0.2 -0.4 -0.1
 -0.1 -0.4 -0.1
 0 -0.4 -0.1
 0.1 -0.4 -0.1
 0.2 -0.4 -0.1
 0.3 -0.4 -0.1
 0.4 -0.4 -0.1
 0.5 -0.4 -0.1
 -0.5 -0.3 -0.1
 -0.4 -0.3 -0.1
 -0.3 -0.3 -0.1
 -0.2 -0.3 -0.1
 -0.1 -0.3 -0.1
 0 -0.3 -0.1
 0.1 -0.3 -0.1
 0.2 -0.3 -0.1
 0.3 -0.3 -0.1
 0.4 -0.3 -0.1
 0.5 -0.3 -0.1
 -0.5 -0.2 -0.1
 -0.4 -0.2 -0.1
 -0.3 -0.2 -0.1
 -0.2 -0.2 -0.1
 -0.1 -0.2 -0.1
 0 -0.2 -0.1
 0.1 -0.2 -0.1
 0.2 -0.2 -0.1
 0.3 -0.2 -0.1
 0.4 -0.2 -0.1
 0.5 -0.2 -0.1
 -0.5 -0.1 -0.1
 -0.4 -0.1 -0.1
 -0.3 -0.1 -0.1
 -0.2 -0.1 -0.1
 -0.1 -0.1 -0.1
 0 -0.1 -0.1
 0.1 -0.1 -0.1
 0.2 -0.1 -0.1
 0.3 -0.1 -0.1
 0.4 -0.1 -0.1
 0.5 -0.1 -0.1
 -0.5 0 -0.1
 -0.4 0 -0.1
 -0.3 0 -0.1
 -0.2 0 -0.1
 -0.1 0 -0.1
 0 0 -0.1
 0.1 0 -0.1
 0.2 0 -0.1
 0.3 0 -0.1
 0.4 0 -0.1
 0.5 0 -0.1
 -0.5 0.1 -0.1
 -0.4 0.1 -0.1
 -0.3 0.1 -0.1
 -0.2 0.1 -0.1
 -0.1 0.1 -0.1
 0 0.1 -0.1
 0.1 0.1 -0.1
 0.2 0.1 -0.1
 0.3 0.1 -0.1
 0.4 0.1 -0.1
 0.5 0.1 -0.1
 -0.5 0.2 -0.1
 -0.4 0.2 -0.1
 -0.3 0.2 -0.1
 -0.2 0.2 -0.1
 -0.1 0.2 -0.1
 0 0.2 -0.1
 0.1 0.2 -0.1
 0.2 0.2 -0.1
 0.3 0.2 -0.1
 0.4 0.2 -0.1
 0.5 0.2 -0.1
 -0.5 0.3 -0.1
 -0.4 0.3 -0.1
 -0.3 0.3 -0.1
 -0.2 0.3 -0.1
 -0.1 0.3 -0.1
 0 0.3 -0.1
 0.1 0.3 -0.1
 0.2 0.3 -0.1
 0.3 0.3 -0.1
 0.4 0.3 -0.1
 0.5 0.3 -0.1
 -0.5 0.4 -0.1
 -0.4 0.4 -0.1
 -0.3 0.4 -0.1
 -0.2 0.4 -0.1
 -0.1 0.4 -0.1
 0 0.4 -0.1
 0.1 0.4 -0.1
 0.2 0.4 -0.1
 0.3 0.4 -0.1
 0.4 0.4 -0.1
 0.5 0.4 -0.1
 -0.5 0.5 -0.1
 -0.4 0.5 -0.1
 -0.3 0.5 -0.1
 -0.2 0.5 -0.1
 -0.1 0.5 -0.1
 0 0.5 -0.1
 0.1 0.5 -0.1
 0.2 0.5 -0.1
 0.3 0.5 -0.1
 0.4 0.5 -0.1
 0.5 0.5 -0.1
 -0.5 -0.5 0
 -0.4 -0.5 0
 -0.3 -0.5 0
 -0.2 -0.5 0
 -0.1 -0.5 0
 0 -0.5 0
 0.1 -0.5 0
 0.2 -0.5 0
 0.3 -0.5 0
 0.4 -0.5 0
 0.5 -0.5 0
 -0.5 -0.4 0
 -0.4 -0.4 0
 -0.3 -0.4 0
 -0.2 -0.4 0
 -0.1 -0.4 0
 0 -0.4 0
 0.1 -0.4 0
 0.2 -0.4 0
 0.3 -0.4 0
 0.4 -0.4 0
 0.5 -0.4 0
 -0.5 -0.3 0
 -0.4 -0.3 0
 -0.3 -0.3 0
 -0.2 -0.3 0
 -0.1 -0.3 0
 0 -0.3 0
 0.1 -0.3 0
 0.2 -0.3 0
 0.3 -0.3 0
 0.4 -0.3 0
 0.5 -0.3 0
 -0.5 -0.2 0
 -0.4 -0.2 0
 -0.3 -0.2 0
 -0.2 -0.2 0
 -0.1 -0.2 0
 0 -0.2 0
 0.1 -0.2 0
 0.2 -0.2 0
 0.3 -0.2 0
 0.4 -0.2 0
 0.5 -0.2 0
 -0.5 -0.1 0
 -0.4 -0.1 0
 -0.3 -0.1 0
 -0.2 -0.1 0
 -0.1 -0.1 0
 0 -0.1 0
 0.1 -0.1 0
 0.2 -0.1 0
 0.3 -0.1 0
 0.4 -0.1 0
 0.5 -0.1 0
 -0.5 0 0
 -0.4 0 0
 -0.3 0 0
 -0.2 0 0
 -0.1 0 0
 0 0 0
 0.1 0 0
 0.2 0 0
 0.3 0 0
 0.4 0 0
 0.5 0 0
 -0.5 0.1 0
 -0.4 0.1 0
 -0.3 0.1 0
 -0.2 0.1 0
 -0.1 0.1 0
 0 0.1 0
 0.1 0.1 0
 0.2 0.1 0
 0.3 0.1 0
 0.4 0.1 0
 0.5 0.1 0
 -0.5 0.2 0
 -0.4 0.2 0
 -0.3 0.2 0
 -0.2 0.2 0
 -0.1 0.2 0
 0 0.2 0
 0.1 0.2 0
 0.2 0.2 0
 0.3 0.2 0
 0.4 0.2 0
 0.5 0.2 0
 -0.5 0.3 0
 -0.4 0.3 0
[...]
CELL_DATA 1000
FIELD DOMAIN 2
VOL_DIV_q 1 1000 FLOAT 
 0.388296
 0.39291
 0.397169
 0.4037
 0.409531
 0.408762
 0.40151
 0.394999
 0.395019
 0.387972
 0.391293
 0.406392
 0.426175
 0.445292
 0.460815
 0.463871
 0.446187
 0.427459
 0.409377
 0.392696
 0.397437
 0.426846
 0.457821
 0.486184
 0.51895
 0.51991
 0.48853
 0.458094
 0.427732
 0.395948
 0.401254
 0.444815
 0.485276
 0.528495
 0.573067
 0.57562
 0.53135
 0.489345
 0.446612
 0.403327
 0.409312
 0.466099
 0.520516
 0.568593
 0.628604
 0.629874
 0.575533
 0.519821
 0.462383
 0.408603
 0.409834
 0.466283
 0.519311
 0.570101
 0.627684
 0.626394
 0.572398
 0.520967
 0.466748
 0.409063
 0.403751
 0.444849
 0.488424
 0.527589
 0.576256
 0.570483
 0.527721
 0.488511
 0.444983
 0.401665
 0.397323
 0.426584
 0.458393
 0.485638
 0.516462
 0.51837
 0.487933
 0.457624
 0.42922
 0.399914
 0.391204
 0.408838
 0.427399
 0.443983
 0.461351
 0.466412
 0.443769
 0.426144
 0.409253
 0.392725
 0.38638
 0.390444
 0.398617
 0.403308
 0.406973
 0.406887
 0.402438
 0.397658
 0.391886
 0.388993
 0.39315
 0.408808
 0.426018
 0.445619
 0.464982
 0.462117
 0.44134
 0.428076
 0.410281
 0.392225
 0.410236
 0.463874
 0.521625
 0.576738
 0.633622
 0.633104
 0.57372
 0.522983
 0.462537
 0.411541
 0.428733
 0.519996
 0.606422
 0.702761
 0.796135
 0.793565
 0.698849
 0.613374
 0.518791
 0.428963
 0.444644
 0.573849
 0.706421
 0.83008
 0.955018
 0.955096
 0.824514
 0.699656
 0.574441
 0.445257
 0.465695
 0.627863
 0.789539
 0.953116
 1.11568
 1.11275
 0.95538
 0.789585
 0.633524
 0.466111
 0.460212
 0.637572
 0.793962
 0.955597
 1.11263
 1.11113
 0.94744
 0.80359
 0.634609
 0.466656
 0.444296
 0.579842
 0.700156
 0.82521
 0.948786
 0.957475
 0.822711
 0.702832
 0.577262
 0.44471
 0.425616
 0.518576
 0.609382
 0.696621
 0.795209
 0.7907
 0.708614
 0.611631
 0.524686
 0.427695
 0.412252
 0.465887
 0.520312
 0.575713
 0.629198
 0.630646
 0.575979
 0.52207
 0.467138
 0.409726
 0.393652
 0.410889
 0.428793
 0.445909
 0.468304
 0.465089
 0.444083
 0.428215
 0.407759
 0.39148
 0.394678
 0.427475
 0.456597
 0.489733
 0.519403
 0.52083
 0.485378
 0.45946
 0.426159
 0.398162
 0.425867
 0.523189
 0.610847
 0.699852
 0.794932
 0.79671
 0.704562
 0.610342
 0.518721
 0.4289
 0.456205
 0.612147
 0.761522
 0.906058
 1.05073
 1.06133
 0.908902
 0.768109
 0.613187
 0.456
 0.485639
 0.701696
 0.910952
 1.11117
 1.30824
 1.30315
 1.11511
 0.910092
 0.704736
 0.487306
 0.518894
 0.792654
 1.05514
 1.3062
 1.55955
 1.55685
 1.31269
 1.05124
 0.793725
 0.518378
 0.518041
 0.794321
 1.05555
 1.31246
 1.56592
 1.55999
 1.30301
 1.06115
 0.796038
 0.517198
 0.491861
 0.702614
 0.905511
 1.10018
 1.3076
 1.311
 1.11101
 0.906521
 0.704998
 0.48413
 0.458616
 0.610407
 0.764176
 0.911626
 1.0581
 1.05846
 0.909346
 0.757421
 0.6126
 0.458008
 0.428838
 0.522493
 0.612557
 0.706648
 0.799954
 0.794236
 0.702086
 0.613883
 0.518661
 0.42672
 0.399939
 0.425117
 0.459047
 0.484647
 0.520461
 0.518474
 0.487238
 0.459366
 0.429618
 0.397777
 0.402514
 0.447971
 0.48511
 0.530009
 0.571848
 0.567516
 0.532029
 0.4877
 0.44566
 0.402236
 0.448122
 0.576375
 0.704238
 0.828707
 0.955645
 0.951355
 0.826603
 0.699634
 0.574628
 0.44588
 0.486756
 0.700186
 0.91028
 1.10926
 1.30597
 1.30468
 1.10969
 0.908366
 0.703407
 0.490337
 0.529694
 0.831049
 1.11267
 1.37599
 1.63576
 1.64514
 1.36584
 1.10502
 0.82933
 0.530494
 0.573708
 0.952309
 1.30955
 1.64918
 1.97492
 1.97633
 1.64779
 1.30652
 0.950183
 0.571703
 0.574492
 0.961776
 1.30074
 1.64624
 1.97588
 1.96694
 1.64281
 1.29791
 0.94908
 0.569097
 0.531519
 0.829263
 1.09447
 1.37517
 1.63495
 1.64202
 1.37183
 1.11671
 0.830295
 0.532777
 0.488578
 0.697367
 0.91268
 1.10787
 1.30804
 1.3125
 1.10184
 0.903246
 0.700322
 0.488437
 0.44176
 0.572185
 0.700146
 0.834102
 0.953733
 0.956121
 0.825986
 0.702607
 0.581343
 0.445622
 0.402465
 0.444501
 0.487046
 0.529056
 0.571092
 0.569842
 0.533057
 0.487392
 0.447128
 0.402511
 0.408497
 0.466956
 0.518605
 0.572747
 0.626794
 0.633295
 0.575881
 0.518057
 0.466193
 0.409916
 0.467115
 0.63532
 0.793198
 0.957261
 1.10903
 1.108
 0.956639
 0.793093
 0.630233
 0.462475
 0.517596
 0.793074
 1.05286
 1.29989
 1.56562
 1.55515
 1.30484
 1.05486
 0.796688
 0.520123
 0.570441
 0.950878
 1.30926
 1.65101
 1.97228
 1.97696
 1.64138
 1.31699
 0.952728
 0.572086
 0.631378
 1.11176
 1.56164
 1.97866
 2.39246
 2.38422
 1.97384
 1.56418
 1.11487
 0.628645
 0.631114
 1.10914
 1.56203
 1.97838
 2.37808
 2.38565
 1.98083
 1.55639
 1.11433
 0.626963
 0.572609
 0.954647
 1.30011
 1.65552
 1.97317
 1.98295
 1.65754
 1.31046
 0.957386
 0.572039
 0.520164
 0.790537
 1.05434
 1.31191
 1.5532
 1.55886
 1.31257
 1.06071
 0.795144
 0.521651
 0.465061
 0.632612
 0.796768
 0.96053
 1.11589
 1.11866
 0.956588
 0.792427
 0.632618
 0.470006
 0.411178
 0.46431
 0.515626
 0.570129
 0.631107
 0.627842
 0.572788
 0.515444
 0.46803
 0.410502
 0.406964
 0.463512
 0.514052
 0.579352
 0.628608
 0.626616
 0.575345
 0.517879
 0.463814
 0.409049
 0.463834
 0.632235
 0.788979
 0.955826
 1.11771
 1.10601
 0.954818
 0.795156
 0.628876
 0.460821
 0.51533
 0.792701
 1.05455
 1.30438
 1.55327
 1.55542
 1.30935
 1.06168
 0.791826
 0.525282
 0.574508
 0.955006
 1.30922
 1.65689
 1.9693
 1.98266
 1.64647
 1.30844
 0.954975
 0.575962
 0.632057
 1.11284
 1.55285
 1.98773
 2.38969
 2.38962
 1.9801
 1.55332
 1.12518
 0.628956
 0.626763
 1.10792
 1.5585
 1.98336
 2.39304
 2.39114
 1.98912
 1.55392
 1.11059
 0.62994
 0.577211
 0.960822
 1.30197
 1.64292
 1.98006
 1.97543
 1.65569
 1.30659
 0.955325
 0.569679
 0.516882
 0.79799
 1.05317
 1.30328
 1.55778
 1.55897
 1.3119
 1.0553
 0.793689
 0.51778
 0.466824
 0.634932
 0.792657
 0.947391
 1.1262
 1.11128
 0.952386
 0.792012
 0.636259
 0.46602
 0.407782
 0.464898
 0.518501
 0.575567
 0.627894
 0.628245
 0.576652
 0.519963
 0.4632
 0.410366
 0.404806
 0.444583
 0.486021
 0.529729
 0.573465
 0.573245
 0.529069
 0.487966
 0.445598
 0.402251
 0.444243
 0.569954
 0.705277
 0.827102
 0.954445
 0.949208
 0.826063
 0.701194
 0.580798
 0.445111
 0.489677
 0.69876
 0.913685
 1.11232
 1.30475
 1.30895
 1.10914
 0.910402
 0.704061
 0.485742
 0.529681
 0.827792
 1.1118
 1.36752
 1.64935
 1.64435
 1.37086
 1.10532
 0.818685
 0.531243
 0.573291
 0.957752
 1.30728
 1.65083
 1.98681
 1.97075
 1.63931
 1.30553
 0.954161
 0.572303
 0.567531
 0.952591
 1.31048
 1.63598
 1.97739
 1.97538
 1.63865
 1.30953
 0.955434
 0.569725
 0.530764
 0.830143
 1.11084
 1.37241
 1.64136
 1.62386
 1.36635
 1.10569
 0.827536
 0.528278
 0.489051
 0.703067
 0.904079
 1.11144
 1.31324
 1.31196
 1.1063
 0.903216
 0.703127
 0.492636
 0.44413
 0.578123
 0.703091
 0.824825
 0.952403
 0.957215
 0.823351
 0.70261
 0.575241
 0.445426
 0.402636
 0.446329
 0.487122
 0.528769
 0.577592
 0.568355
 0.52766
 0.484839
 0.446466
 0.400936
 0.396899
 0.425572
 0.452802
 0.484891
 0.52155
 0.513803
 0.487259
 0.458153
 0.424747
 0.400314
 0.431055
 0.523364
 0.614419
 0.696432
 0.793537
 0.79158
 0.703208
 0.613781
 0.519237
 0.427565
 0.456059
 0.612952
 0.762339
 0.909434
 1.0629
 1.05746
 0.903782
 0.765678
 0.613048
 0.457127
 0.486982
 0.694451
 0.911019
 1.10218
 1.30079
 1.30602
 1.10504
 0.91049
 0.701621
 0.487443
 0.520658
 0.792814
 1.05041
 1.31407
 1.55957
 1.5621
 1.31208
 1.05405
 0.788102
 0.517397
 0.516785
 0.787951
 1.05481
 1.31863
 1.55771
 1.56125
 1.3118
 1.05078
 0.794764
 0.517653
 0.487885
 0.705027
 0.905706
 1.10004
 1.31136
 1.31334
 1.10889
 0.91084
 0.698365
 0.485791
 0.455874
 0.610516
 0.765368
 0.907984
 1.05819
 1.05018
 0.903447
 0.763887
 0.613535
 0.457598
 0.427981
 0.520947
 0.613221
 0.704676
 0.791637
 0.795846
 0.703586
 0.614015
 0.524673
 0.428748
 0.398436
 0.425714
 0.455891
 0.486868
 0.518035
 0.518002
 0.484347
 0.458531
 0.427357
 0.399022
 0.393579
 0.408749
 0.424939
 0.446898
 0.461147
 0.469326
 0.442097
 0.427096
 0.40766
 0.393642
 0.40783
 0.464427
 0.518185
 0.577431
 0.633934
 0.631261
 0.576461
 0.521027
 0.459421
 0.40994
 0.42646
 0.519673
 0.612935
 0.701193
 0.794895
 0.798015
 0.706598
 0.611038
 0.519395
 0.426157
 0.447698
 0.577605
 0.699825
 0.832313
 0.955051
 0.954133
 0.827656
 0.700871
 0.574786
 0.444394
 0.46259
 0.631949
 0.795227
 0.956323
 1.11284
 1.12536
 0.953773
 0.797329
 0.627408
 0.465805
 0.464322
 0.63218
 0.794422
 0.949186
 1.11701
 1.11851
 0.951309
 0.795193
 0.632105
 0.466504
 0.445163
 0.578171
 0.700709
 0.828449
 0.951439
 0.952002
 0.821843
 0.704677
 0.573968
 0.446025
 0.428983
 0.523712
 0.610791
 0.708836
 0.796142
 0.798163
 0.70626
 0.613771
 0.514325
 0.427207
 0.409399
 0.464482
 0.51878
 0.569735
 0.628129
 0.631357
 0.577548
 0.517859
 0.464783
 0.411507
 0.393025
 0.40755
 0.426839
 0.447158
 0.464227
 0.462488
 0.44415
 0.427515
 0.410874
 0.392403
 0.391175
 0.393086
 0.398887
 0.402358
 0.410716
 0.413329
 0.401954
 0.399727
 0.392444
 0.38827
 0.394589
 0.411737
 0.42693
 0.443995
 0.464868
 0.467183
 0.445088
 0.427883
 0.410435
 0.391284
 0.395396
 0.427399
 0.456547
 0.488021
 0.517791
 0.51952
 0.485338
 0.458864
 0.428493
 0.401075
 0.40272
 0.447712
 0.484928
 0.527938
 0.57647
 0.573456
 0.530827
 0.4903
 0.441313
 0.404102
 0.412274
 0.466605
 0.518168
 0.571929
 0.629765
 0.629765
 0.572503
 0.519556
 0.461318
 0.408375
 0.408736
 0.465514
 0.515801
 0.574005
 0.629556
 0.628536
 0.576265
 0.520549
 0.463774
 0.409413
 0.402618
 0.444215
 0.489509
 0.527629
 0.576759
 0.578079
 0.52653
 0.486359
 0.445115
 0.402858
 0.396871
 0.428348
 0.453004
 0.483029
 0.520245
 0.521992
 0.489041
 0.456457
 0.428051
 0.399663
 0.39022
 0.409462
 0.426234
 0.447801
 0.465274
 0.46231
 0.447676
 0.425701
 0.411415
 0.393159
 0.387886
 0.391603
 0.396462
 0.401245
 0.408294
 0.407185
 0.403025
 0.395527
 0.393988
 0.387594

Vol_HEAT_Q 1 1000 FLOAT 
 0.000388296
 0.00039291
 0.000397169
 0.0004037
 0.000409531
 0.000408762
 0.00040151
 0.000394999
 0.000395019
 0.000387972
 0.000391293
 0.000406392
 0.000426175
 0.000445292
 0.000460815
 0.000463871
 0.000446187
 0.000427459
 0.000409377
 0.000392696
 0.000397437
 0.000426846
 0.000457821
 0.000486184
 0.00051895
 0.00051991
 0.00048853
 0.000458094
 0.000427732
 0.000395948
 0.000401254
 0.000444815
 0.000485276
 0.000528495
 0.000573067
 0.00057562
 0.00053135
 0.000489345
 0.000446612
 0.000403327
 0.000409312
 0.000466099
 0.000520516
 0.000568593
 0.000628604
 0.000629874
 0.000575533
 0.000519821
 0.000462383
 0.000408603
 0.000409834
 0.000466283
 0.000519311
 0.000570101
 0.000627684
 0.000626394
 0.000572398
 0.000520967
 0.000466748
 0.000409063
 0.000403751
 0.000444849
 0.000488424
 0.000527589
 0.000576256
 0.000570483
 0.000527721
 0.000488511
 0.000444983
 0.000401665
 0.000397323
 0.000426584
 0.000458393
 0.000485638
 0.000516462
 0.00051837
 0.000487933
 0.000457624
 0.00042922
 0.000399914
 0.000391204
 0.000408838
 0.000427399
 0.000443983
 0.000461351
 0.000466412
 0.000443769
 0.000426144
 0.000409253
 0.000392725
 0.00038638
 0.000390444
 0.000398617
 0.000403308
 0.000406973
 0.000406887
 0.000402438
 0.000397658
 0.000391886
 0.000388993
 0.00039315
 0.000408808
 0.000426018
 0.000445619
 0.000464982
 0.000462117
 0.00044134
 0.000428076
 0.000410281
 0.000392225
 0.000410236
 0.000463874
 0.000521625
 0.000576738
 0.000633622
 0.000633104
 0.00057372
 0.000522983
 0.000462537
 0.000411541
 0.000428733
 0.000519996
 0.000606422
 0.000702761
 0.000796135
 0.000793565
 0.000698849
 0.000613374
 0.000518791
 0.000428963
 0.000444644
 0.000573849
 0.000706421
 0.00083008
 0.000955018
 0.000955096
 0.000824514
 0.000699656
 0.000574441
 0.000445257
 0.000465695
 0.000627863
 0.000789539
 0.000953116
 0.00111568
 0.00111275
 0.00095538
 0.000789585
 0.000633524
 0.000466111
 0.000460212
 0.000637572
 0.000793962
 0.000955597
 0.00111263
 0.00111113
 0.00094744
 0.00080359
 0.000634609
 0.000466656
 0.000444296
 0.000579842
 0.000700156
 0.00082521
 0.000948786
 0.000957475
 0.000822711
 0.000702832
 0.000577262
 0.00044471
 0.000425616
 0.000518576
 0.000609382
 0.000696621
 0.000795209
 0.0007907
 0.000708614
 0.000611631
 0.000524686
 0.000427695
 0.000412252
 0.000465887
 0.000520312
 0.000575713
 0.000629198
 0.000630646
 0.000575979
 0.00052207
 0.000467138
 0.000409726
 0.000393652
 0.000410889
 0.000428793
 0.000445909
 0.000468304
 0.000465089
 0.000444083
 0.000428215
 0.000407759
 0.00039148
 0.000394678
 0.000427475
 0.000456597
 0.000489733
 0.000519403
 0.00052083
 0.000485378
 0.00045946
 0.000426159
 0.000398162
 0.000425867
 0.000523189
 0.000610847
 0.000699852
 0.000794932
 0.00079671
 0.000704562
 0.000610342
 0.000518721
 0.0004289
 0.000456205
 0.000612147
 0.000761522
 0.000906058
 0.00105073
 0.00106133
 0.000908902
 0.000768109
 0.000613187
 0.000456
 0.000485639
 0.000701696
 0.000910952
 0.00111117
 0.00130824
 0.00130315
 0.00111511
 0.000910092
 0.000704736
 0.000487306
 0.000518894
 0.000792654
 0.00105514
 0.0013062
 0.00155955
 0.00155685
 0.00131269
 0.00105124
 0.000793725
 0.000518378
 0.000518041
 0.000794321
 0.00105555
 0.00131246
 0.00156592
 0.00155999
 0.00130301
 0.00106115
 0.000796038
 0.000517198
 0.000491861
 0.000702614
 0.000905511
 0.00110018
 0.0013076
 0.001311
 0.00111101
 0.000906521
 0.000704998
 0.00048413
 0.000458616
 0.000610407
 0.000764176
 0.000911626
 0.0010581
 0.00105846
 0.000909346
 0.000757421
 0.0006126
 0.000458008
 0.000428838
 0.000522493
 0.000612557
 0.000706648
 0.000799954
 0.000794236
 0.000702086
 0.000613883
 0.000518661
 0.00042672
 0.000399939
 0.000425117
 0.000459047
 0.000484647
 0.000520461
 0.000518474
 0.000487238
 0.000459366
 0.000429618
 0.000397777
 0.000402514
 0.000447971
 0.00048511
 0.000530009
 0.000571848
 0.000567516
 0.000532029
 0.0004877
 0.00044566
 0.000402236
 0.000448122
 0.000576375
 0.000704238
 0.000828707
 0.000955645
 0.000951355
 0.000826603
 0.000699634
 0.000574628
 0.00044588
 0.000486756
 0.000700186
 0.00091028
 0.00110926
 0.00130597
 0.00130468
 0.00110969
 0.000908366
 0.000703407
 0.000490337
 0.000529694
 0.000831049
 0.00111267
 0.00137599
 0.00163576
 0.00164514
 0.00136584
 0.00110502
 0.00082933
 0.000530494
 0.000573708
 0.000952309
 0.00130955
 0.00164918
 0.00197492
 0.00197633
 0.00164779
 0.00130652
 0.000950183
 0.000571703
 0.000574492
 0.000961776
 0.00130074
 0.00164624
 0.00197588
 0.00196694
 0.00164281
 0.00129791
 0.00094908
 0.000569097
 0.000531519
 0.000829263
 0.00109447
 0.00137517
 0.00163495
 0.00164202
 0.00137183
 0.00111671
 0.000830295
 0.000532777
 0.000488578
 0.000697367
 0.00091268
 0.00110787
 0.00130804
 0.0013125
 0.00110184
 0.000903246
 0.000700322
 0.000488437
 0.00044176
 0.000572185
 0.000700146
 0.000834102
 0.000953733
 0.000956121
 0.000825986
 0.000702607
 0.000581343
 0.000445622
 0.000402465
 0.000444501
 0.000487046
 0.000529056
 0.000571092
 0.000569842
 0.000533057
 0.000487392
 0.000447128
 0.000402511
 0.000408497
 0.000466956
 0.000518605
 0.000572747
 0.000626794
 0.000633295
 0.000575881
 0.000518057
 0.000466193
 0.000409916
 0.000467115
 0.00063532
 0.000793198
 0.000957261
 0.00110903
 0.001108
 0.000956639
 0.000793093
 0.000630233
 0.000462475
 0.000517596
 0.000793074
 0.00105286
 0.00129989
 0.00156562
 0.00155515
 0.00130484
 0.00105486
 0.000796688
 0.000520123
 0.000570441
 0.000950878
 0.00130926
 0.00165101
 0.00197228
 0.00197696
 0.00164138
 0.00131699
 0.000952728
 0.000572086
 0.000631378
 0.00111176
 0.00156164
 0.00197866
 0.00239246
 0.00238422
 0.00197384
 0.00156418
 0.00111487
 0.000628645
 0.000631114
 0.00110914
 0.00156203
 0.00197838
 0.00237808
 0.00238565
 0.00198083
 0.00155639
 0.00111433
 0.000626963
 0.000572609
 0.000954647
 0.00130011
 0.00165552
 0.00197317
 0.00198295
 0.00165754
 0.00131046
 0.000957386
 0.000572039
 0.000520164
 0.000790537
 0.00105434
 0.00131191
 0.0015532
 0.00155886
 0.00131257
 0.00106071
 0.000795144
 0.000521651
 0.000465061
 0.000632612
 0.000796768
 0.00096053
 0.00111589
 0.00111866
 0.000956588
 0.000792427
 0.000632618
 0.000470006
 0.000411178
 0.00046431
 0.000515626
 0.000570129
 0.000631107
 0.000627842
 0.000572788
 0.000515444
 0.00046803
 0.000410502
 0.000406964
 0.000463512
 0.000514052
 0.000579352
 0.000628608
 0.000626616
 0.000575345
 0.000517879
 0.000463814
 0.000409049
 0.000463834
 0.000632235
 0.000788979
 0.000955826
 0.00111771
 0.00110601
 0.000954818
 0.000795156
 0.000628876
 0.000460821
 0.00051533
 0.000792701
 0.00105455
 0.00130438
 0.00155327
 0.00155542
 0.00130935
 0.00106168
 0.000791826
 0.000525282
 0.000574508
 0.000955006
 0.00130922
 0.00165689
 0.0019693
 0.00198266
 0.00164647
 0.00130844
 0.000954975
 0.000575962
 0.000632057
 0.00111284
 0.00155285
 0.00198773
 0.00238969
 0.00238962
 0.0019801
 0.00155332
 0.00112518
 0.000628956
 0.000626763
 0.00110792
 0.0015585
 0.00198336
 0.00239304
 0.00239114
 0.00198912
 0.00155392
 0.00111059
 0.00062994
 0.000577211
 0.000960822
 0.00130197
 0.00164292
 0.00198006
 0.00197543
 0.00165569
 0.00130659
 0.000955325
 0.000569679
 0.000516882
 0.00079799
 0.00105317
 0.00130328
 0.00155778
 0.00155897
 0.0013119
 0.0010553
 0.000793689
 0.00051778
 0.000466824
 0.000634932
 0.000792657
 0.000947391
 0.0011262
 0.00111128
 0.000952386
 0.000792012
 0.000636259
 0.00046602
 0.000407782
 0.000464898
 0.000518501
 0.000575567
 0.000627894
 0.000628245
 0.000576652
 0.000519963
 0.0004632
 0.000410366
 0.000404806
 0.000444583
 0.000486021
 0.000529729
 0.000573465
 0.000573245
 0.000529069
 0.000487966
 0.000445598
 0.000402251
 0.000444243
 0.000569954
 0.000705277
 0.000827102
 0.000954445
 0.000949208
 0.000826063
 0.000701194
 0.000580798
 0.000445111
 0.000489677
 0.00069876
 0.000913685
 0.00111232
 0.00130475
 0.00130895
 0.00110914
 0.000910402
 0.000704061
 0.000485742
 0.000529681
 0.000827792
 0.0011118
 0.00136752
 0.00164935
 0.00164435
 0.00137086
 0.00110532
 0.000818685
 0.000531243
 0.000573291
 0.000957752
 0.00130728
 0.00165083
 0.00198681
 0.00197075
 0.00163931
 0.00130553
 0.000954161
 0.000572303
 0.000567531
 0.000952591
 0.00131048
 0.00163598
 0.00197739
 0.00197538
 0.00163865
 0.00130953
 0.000955434
 0.000569725
 0.000530764
 0.000830143
 0.00111084
 0.00137241
 0.00164136
 0.00162386
 0.00136635
 0.00110569
 0.000827536
 0.000528278
 0.000489051
 0.000703067
 0.000904079
 0.00111144
 0.00131324
 0.00131196
 0.0011063
 0.000903216
 0.000703127
 0.000492636
 0.00044413
 0.000578123
 0.000703091
 0.000824825
 0.000952403
 0.000957215
 0.000823351
 0.00070261
 0.000575241
 0.000445426
 0.000402636
 0.000446329
 0.000487122
 0.000528769
 0.000577592
 0.000568355
 0.00052766
 0.000484839
 0.000446466
 0.000400936
 0.000396899
 0.000425572
 0.000452802
 0.000484891
 0.00052155
 0.000513803
 0.000487259
 0.000458153
 0.000424747
 0.000400314
 0.000431055
 0.000523364
 0.000614419
 0.000696432
 0.000793537
 0.00079158
 0.000703208
 0.000613781
 0.000519237
 0.000427565
 0.000456059
 0.000612952
 0.000762339
 0.000909434
 0.0010629
 0.00105746
 0.000903782
 0.000765678
 0.000613048
 0.000457127
 0.000486982
 0.000694451
 0.000911019
 0.00110218
 0.00130079
 0.00130602
 0.00110504
 0.00091049
 0.000701621
 0.000487443
 0.000520658
 0.000792814
 0.00105041
 0.00131407
 0.00155957
 0.0015621
 0.00131208
 0.00105405
 0.000788102
 0.000517397
 0.000516785
 0.000787951
 0.00105481
 0.00131863
 0.00155771
 0.00156125
 0.0013118
 0.00105078
 0.000794764
 0.000517653
 0.000487885
 0.000705027
 0.000905706
 0.00110004
 0.00131136
 0.00131334
 0.00110889
 0.00091084
 0.000698365
 0.000485791
 0.000455874
 0.000610516
 0.000765368
 0.000907984
 0.00105819
 0.00105018
 0.000903447
 0.000763887
 0.000613535
 0.000457598
 0.000427981
 0.000520947
 0.000613221
 0.000704676
 0.000791637
 0.000795846
 0.000703586
 0.000614015
 0.000524673
 0.000428748
 0.000398436
 0.000425714
 0.000455891
 0.000486868
 0.000518035
 0.000518002
 0.000484347
 0.000458531
 0.000427357
 0.000399022
 0.000393579
 0.000408749
 0.000424939
 0.000446898
 0.000461147
 0.000469326
 0.000442097
 0.000427096
 0.00040766