# vtk DataFile Version 2.0
Three-D cube divergence of heat flux and Q in volume elements
ASCII
DATASET UNSTRUCTURED_GRID

POINTS  1331  FLOAT
 -0.5 -0.5 -0.5
 -0.439077 -0.5 -0.5
 -0.362922 -0.5 -0.5
 -0.26773 -0.5 -0.5
 -0.148739 -0.5 -0.5
 0 -0.5 -0.5
 0.148739 -0.5 -0.5
 0.26773 -0.5 -0.5
 0.362922 -0.5 -0.5
 0.439077 -0.5 -0.5
 0.5 -0.5 -0.5
 -0.5 -0.439077 -0.5
 -0.439077 -0.439077 -0.5
 -0.362922 -0.439077 -0.5
 -0.26773 -0.439077 -0.5
 -0.148739 -0.439077 -0.5
 0 -0.439077 -0.5
 0.148739 -0.439077 -0.5
 0.26773 -0.439077 -0.5
 0.362922 -0.439077 -0.5
 0.439077 -0.439077 -0.5
 0.5 -0.439077 -0.5
 -0.5 -0.362922 -0.5
 -0.439077 -0.362922 -0.5
 -0.362922 -0.362922 -0.5
 -0.26773 -0.362922 -0.5
 -0.148739 -0.362922 -0.5
 0 -0.362922 -0.5
 0.148739 -0.362922 -0.5
 0.26773 -0.362922 -0.5
 0.362922 -0.362922 -0.5
 0.439077 -0.362922 -0.5
 0.5 -0.362922 -0.5
 -0.5 -0.26773 -0.5
 -0.439077 -0.26773 -0.5
 -0.362922 -0.26773 -0.5
 -0.26773 -0.26773 -0.5
 -0.148739 -0.26773 -0.5
 0 -0.26773 -0.5
 0.148739 -0.26773 -0.5
 0.26773 -0.26773 -0.5
 0.362922 -0.26773 -0.5
 0.439077 -0.26773 -0.5
 0.5 -0.26773 -0.5
 -0.5 -0.148739 -0.5
 -0.439077 -0.148739 -0.5
 -0.362922 -0.148739 -0.5
 -0.26773 -0.148739 -0.5
 -0.148739 -0.148739 -0.5
 0 -0.148739 -0.5
 0.148739 -0.148739 -0.5
 0.26773 -0.148739 -0.5
 0.362922 -0.148739 -0.5
 0.439077 -0.148739 -0.5
 0.5 -0.148739 -0.5
 -0.5 0 -0.5
 -0.439077 0 -0.5
 -0.362922 0 -0.5
 -0.26773 0 -0.5
 -0.148739 0 -0.5
 0 0 -0.5
 0.148739 0 -0.5
 0.26773 0 -0.5
 0.362922 0 -0.5
 0.439077 0 -0.5
 0.5 0 -0.5
 -0.5 0.148739 -0.5
 -0.439077 0.148739 -0.5
 -0.362922 0.148739 -0.5
 -0.26773 0.148739 -0.5
 -0.148739 0.148739 -0.5
 0 0.148739 -0.5
 0.148739 0.148739 -0.5
 0.26773 0.148739 -0.5
 0.362922 0.148739 -0.5
 0.439077 0.148739 -0.5
 0.5 0.148739 -0.5
 -0.5 0.26773 -0.5
 -0.439077 0.26773 -0.5
 -0.362922 0.26773 -0.5
 -0.26773 0.26773 -0.5
 -0.148739 0.26773 -0.5
 0 0.26773 -0.5
 0.148739 0.26773 -0.5
 0.26773 0.26773 -0.5
 0.362922 0.26773 -0.5
 0.439077 0.26773 -0.5
 0.5 0.26773 -0.5
 -0.5 0.362922 -0.5
 -0.439077 0.362922 -0.5
 -0.362922 0.362922 -0.5
 -0.26773 0.362922 -0.5
 -0.148739 0.362922 -0.5
 0 0.362922 -0.5
 0.148739 0.362922 -0.5
 0.26773 0.362922 -0.5
 0.362922 0.362922 -0.5
 0.439077 0.362922 -0.5
 0.5 0.362922 -0.5
 -0.5 0.439077 -0.5
 -0.439077 0.439077 -0.5
 -0.362922 0.439077 -0.5
 -0.26773 0.439077 -0.5
 -0.148739 0.439077 -0.5
 0 0.439077 -0.5
 0.148739 0.439077 -0.5
 0.26773 0.439077 -0.5
 0.362922 0.439077 -0.5
 0.439077 0.439077 -0.5
 0.5 0.439077 -0.5
 -0.5 0.5 -0.5
 -0.439077 0.5 -0.5
 -0.362922 0.5 -0.5
 -0.26773 0.5 -0.5
 -0.148739 0.5 -0.5
 0 0.5 -0.5
 0.148739 0.5 -0.5
 0.26773 0.5 -0.5
 0.362922 0.5 -0.5
 0.439077 0.5 -0.5
 0.5 0.5 -0.5
 -0.5 -0.5 -0.439077
 -0.439077 -0.5 -0.439077
 -0.362922 -0.5 -0.439077
 -0.26773 -0.5 -0.439077
 -0.148739 -0.5 -0.439077
 0 -0.5 -0.439077
 0.148739 -0.5 -0.439077
 0.26773 -0.5 -0.439077
 0.362922 -0.5 -0.439077
 0.439077 -0.5 -0.439077
 0.5 -0.5 -0.439077
 -0.5 -0.439077 -0.439077
 -0.439077 -0.439077 -0.439077
 -0.362922 -0.439077 -0.439077
 -0.26773 -0.439077 -0.439077
 -0.148739 -0.439077 -0.439077
 0 -0.439077 -0.439077
 0.148739 -0.439077 -0.439077
 0.26773 -0.439077 -0.439077
 0.362922 -0.439077 -0.439077
 0.439077 -0.439077 -0.439077
 0.5 -0.439077 -0.439077
 -0.5 -0.362922 -0.439077
 -0.439077 -0.362922 -0.439077
 -0.362922 -0.362922 -0.439077
 -0.26773 -0.362922 -0.439077
 -0.148739 -0.362922 -0.439077
 0 -0.362922 -0.439077
 0.148739 -0.362922 -0.439077
 0.26773 -0.362922 -0.439077
 0.362922 -0.362922 -0.439077
 0.439077 -0.362922 -0.439077
 0.5 -0.362922 -0.439077
 -0.5 -0.26773 -0.439077
 -0.439077 -0.26773 -0.439077
 -0.362922 -0.26773 -0.439077
 -0.26773 -0.26773 -0.439077
 -0.148739 -0.26773 -0.439077
 0 -0.26773 -0.439077
 0.148739 -0.26773 -0.439077
 0.26773 -0.26773 -0.439077
 0.362922 -0.26773 -0.439077
 0.439077 -0.26773 -0.439077
 0.5 -0.26773 -0.439077
 -0.5 -0.148739 -0.439077
 -0.439077 -0.148739 -0.439077
 -0.362922 -0.148739 -0.439077
 -0.26773 -0.148739 -0.439077
 -0.148739 -0.148739 -0.439077
 0 -0.148739 -0.439077
 0.148739 -0.148739 -0.439077
 0.26773 -0.148739 -0.439077
 0.362922 -0.148739 -0.439077
 0.439077 -0.148739 -0.439077
 0.5 -0.148739 -0.439077
 -0.5 0 -0.439077
 -0.439077 0 -0.439077
 -0.362922 0 -0.439077
 -0.26773 0 -0.439077
 -0.148739 0 -0.439077
 0 0 -0.439077
 0.148739 0 -0.439077
 0.26773 0 -0.439077
 0.362922 0 -0.439077
 0.439077 0 -0.439077
 0.5 0 -0.439077
 -0.5 0.148739 -0.439077
 -0.439077 0.148739 -0.439077
 -0.362922 0.148739 -0.439077
 -0.26773 0.148739 -0.439077
 -0.148739 0.148739 -0.439077
 0 0.148739 -0.439077
 0.148739 0.148739 -0.439077
 0.26773 0.148739 -0.439077
 0.362922 0.148739 -0.439077
 0.439077 0.148739 -0.439077
 0.5 0.148739 -0.439077
 -0.5 0.26773 -0.439077
 -0.439077 0.26773 -0.439077
 -0.362922 0.26773 -0.439077
 -0.26773 0.26773 -0.439077
 -0.148739 0.26773 -0.439077
 0 0.26773 -0.439077
 0.148739 0.26773 -0.439077
 0.26773 0.26773 -0.439077
 0.362922 0.26773 -0.439077
 0.439077 0.26773 -0.439077
 0.5 0.26773 -0.439077
 -0.5 0.362922 -0.439077
 -0.439077 0.362922 -0.439077
 -0.362922 0.362922 -0.439077
 -0.26773 0.362922 -0.439077
 -0.148739 0.362922 -0.439077
 0 0.362922 -0.439077
 0.148739 0.362922 -0.439077
 0.26773 0.362922 -0.439077
 0.362922 0.362922 -0.439077
 0.439077 0.362922 -0.439077
 0.5 0.362922 -0.439077
 -0.5 0.439077 -0.439077
 -0.439077 0.439077 -0.439077
 -0.362922 0.439077 -0.439077
 -0.26773 0.439077 -0.439077
 -0.148739 0.439077 -0.439077
 0 0.439077 -0.439077
 0.148739 0.439077 -0.439077
 0.26773 0.439077 -0.439077
 0.362922 0.439077 -0.439077
 0.439077 0.439077 -0.439077
 0.5 0.439077 -0.439077
 -0.5 0.5 -0.439077
 -0.439077 0.5 -0.439077
 -0.362922 0.5 -0.439077
 -0.26773 0.5 -0.439077
 -0.148739 0.5 -0.439077
 0 0.5 -0.439077
 0.148739 0.5 -0.439077
 0.26773 0.5 -0.439077
 0.362922 0.5 -0.439077
 0.439077 0.5 -0.439077
 0.5 0.5 -0.439077
 -0.5 -0.5 -0.362922
 -0.439077 -0.5 -0.362922
 -0.362922 -0.5 -0.362922
 -0.26773 -0.5 -0.362922
 -0.148739 -0.5 -0.362922
 0 -0.5 -0.362922
 0.148739 -0.5 -0.362922
 0.26773 -0.5 -0.362922
 0.362922 -0.5 -0.362922
 0.439077 -0.5 -0.362922
 0.5 -0.5 -0.362922
 -0.5 -0.439077 -0.362922
 -0.439077 -0.439077 -0.362922
 -0.362922 -0.439077 -0.362922
 -0.26773 -0.439077 -0.362922
 -0.148739 -0.439077 -0.362922
 0 -0.439077 -0.362922
 0.148739 -0.439077 -0.362922
 0.26773 -0.439077 -0.362922
 0.362922 -0.439077 -0.362922
 0.439077 -0.439077 -0.362922
 0.5 -0.439077 -0.362922
 -0.5 -0.362922 -0.362922
 -0.439077 -0.362922 -0.362922
 -0.362922 -0.362922 -0.362922
 -0.26773 -0.362922 -0.362922
 -0.148739 -0.362922 -0.362922
 0 -0.362922 -0.362922
 0.148739 -0.362922 -0.362922
 0.26773 -0.362922 -0.362922
 0.362922 -0.362922 -0.362922
 0.439077 -0.362922 -0.362922
 0.5 -0.362922 -0.362922
 -0.5 -0.26773 -0.362922
 -0.439077 -0.26773 -0.362922
 -0.362922 -0.26773 -0.362922
 -0.26773 -0.26773 -0.362922
 -0.148739 -0.26773 -0.362922
 0 -0.26773 -0.362922
 0.148739 -0.26773 -0.362922
 0.26773 -0.26773 -0.362922
 0.362922 -0.26773 -0.362922
 0.439077 -0.26773 -0.362922
 0.5 -0.26773 -0.362922
 -0.5 -0.148739 -0.362922
 -0.439077 -0.148739 -0.362922
 -0.362922 -0.148739 -0.362922
 -0.26773 -0.148739 -0.362922
 -0.148739 -0.148739 -0.362922
 0 -0.148739 -0.362922
 0.148739 -0.148739 -0.362922
 0.26773 -0.148739 -0.362922
 0.362922 -0.148739 -0.362922
 0.439077 -0.148739 -0.362922
 0.5 -0.148739 -0.362922
 -0.5 0 -0.362922
 -0.439077 0 -0.362922
 -0.362922 0 -0.362922
 -0.26773 0 -0.362922
 -0.148739 0 -0.362922
 0 0 -0.362922
 0.148739 0 -0.362922
 0.26773 0 -0.362922
 0.362922 0 -0.362922
 0.439077 0 -0.362922
 0.5 0 -0.362922
 -0.5 0.148739 -0.362922
 -0.439077 0.148739 -0.362922
 -0.362922 0.148739 -0.362922
 -0.26773 0.148739 -0.362922
 -0.148739 0.148739 -0.362922
 0 0.148739 -0.362922
 0.148739 0.148739 -0.362922
 0.26773 0.148739 -0.362922
 0.362922 0.148739 -0.362922
 0.439077 0.148739 -0.362922
 0.5 0.148739 -0.362922
 -0.5 0.26773 -0.362922
 -0.439077 0.26773 -0.362922
 -0.362922 0.26773 -0.362922
 -0.26773 0.26773 -0.362922
 -0.148739 0.26773 -0.362922
 0 0.26773 -0.362922
 0.148739 0.26773 -0.362922
 0.26773 0.26773 -0.362922
 0.362922 0.26773 -0.362922
 0.439077 0.26773 -0.362922
 0.5 0.26773 -0.362922
 -0.5 0.362922 -0.362922
 -0.439077 0.362922 -0.362922
 -0.362922 0.362922 -0.362922
 -0.26773 0.362922 -0.362922
 -0.148739 0.362922 -0.362922
 0 0.362922 -0.362922
 0.148739 0.362922 -0.362922
 0.26773 0.362922 -0.362922
 0.362922 0.362922 -0.362922
 0.439077 0.362922 -0.362922
 0.5 0.362922 -0.362922
 -0.5 0.439077 -0.362922
 -0.439077 0.439077 -0.362922
 -0.362922 0.439077 -0.362922
 -0.26773 0.439077 -0.362922
 -0.148739 0.439077 -0.362922
 0 0.439077 -0.362922
 0.148739 0.439077 -0.362922
 0.26773 0.439077 -0.362922
 0.362922 0.439077 -0.362922
 0.439077 0.439077 -0.362922
 0.5 0.439077 -0.362922
 -0.5 0.5 -0.362922
 -0.439077 0.5 -0.362922
 -0.362922 0.5 -0.362922
 -0.26773 0.5 -0.362922
 -0.148739 0.5 -0.362922
 0 0.5 -0.362922
 0.148739 0.5 -0.362922
 0.26773 0.5 -0.362922
 0.362922 0.5 -0.362922
 0.439077 0.5 -0.362922
 0.5 0.5 -0.362922
 -0.5 -0.5 -0.26773
 -0.439077 -0.5 -0.26773
 -0.362922 -0.5 -0.26773
 -0.26773 -0.5 -0.26773
 -0.148739 -0.5 -0.26773
 0 -0.5 -0.26773
 0.148739 -0.5 -0.26773
 0.26773 -0.5 -0.26773
 0.362922 -0.5 -0.26773
 0.439077 -0.5 -0.26773
 0.5 -0.5 -0.26773
 -0.5 -0.439077 -0.26773
 -0.439077 -0.439077 -0.26773
 -0.362922 -0.439077 -0.26773
 -0.26773 -0.439077 -0.26773
 -0.148739 -0.439077 -0.26773
 0 -0.439077 -0.26773
 0.148739 -0.439077 -0.26773
 0.26773 -0.439077 -0.26773
 0.362922 -0.439077 -0.26773
 0.439077 -0.439077 -0.26773
 0.5 -0.439077 -0.26773
 -0.5 -0.362922 -0.26773
 -0.439077 -0.362922 -0.26773
 -0.362922 -0.362922 -0.26773
 -0.26773 -0.362922 -0.26773
 -0.148739 -0.362922 -0.26773
 0 -0.362922 -0.26773
 0.148739 -0.362922 -0.26773
 0.26773 -0.362922 -0.26773
 0.362922 -0.362922 -0.26773
 0.439077 -0.362922 -0.26773
 0.5 -0.362922 -0.26773
[...]
CELL_DATA 1000
FIELD DOMAIN 2
VOL_DIV_q 1 1000 FLOAT 
 -9.53946e+06
 1.541e+08
 -2.20489e+07
 5.85422e+07
 -1.61399e+07
 -1.56145e+07
 3.34761e+07
 -1.85296e+07
 3.14386e+07
 -1.7154e+07
 -1.45056e+07
 -2.12655e+07
 -1.65558e+07
 3.66423e+07
 2.08261e+07
 2.5152e+07
 -6.07126e+06
 1.65588e+08
 9.78869e+07
 1.4109e+07
 -2.29552e+07
 2.01565e+07
 1.96442e+07
 -2.30193e+07
 -2.26004e+07
 -4.25923e+06
 -1.88627e+07
 -2.31783e+07
 -2.14105e+07
 -823790
 -2.15969e+07
 2.34217e+07
 -7.68884e+06
 8.23857e+06
 -1.30608e+07
 8.18523e+07
 -1.29284e+07
 -1.84195e+07
 -1.89224e+07
 -1.95664e+07
 6.86723e+07
 7.07419e+06
 1.29849e+07
 1.68942e+07
 -1.93261e+07
 -2.33577e+07
 9.20388e+07
 -1.46834e+07
 1.56114e+07
 3.62342e+06
 -1.62726e+07
 -2.09646e+07
 3.23507e+07
 -1.0028e+07
 -2.33364e+07
 -5.43188e+06
 6.47275e+06
 -1.65692e+07
 260523
 -1.56745e+07
 5.01594e+07
 -2.294e+07
 1.06241e+07
 -1.67003e+07
 3.61155e+07
 -1.54964e+07
 -1.28943e+07
 -729268
 8.6092e+06
 -2.1201e+07
 -2.21267e+07
 -1.46488e+07
 1.95014e+07
 -1.81973e+07
 -2.3164e+07
 -2.38841e+07
 -2.29006e+07
 -2.28602e+07
 -2.34749e+07
 -1.89124e+07
 2.81954e+07
 3.07115e+07
 6.0076e+07
 -4.50953e+06
 1.22884e+07
 -1.99654e+07
 6.1174e+07
 -1.73559e+07
 -2.07254e+07
 -1.37259e+07
 -1.29236e+07
 2.9343e+08
 -8.53324e+06
 -2.24416e+07
 -1.96876e+07
 -2.24286e+07
 -9.30436e+06
 -2.2062e+07
 -2.25585e+07
 -1.95015e+07
 2.07851e+07
 8.85411e+07
 -2.36559e+07
 -1.47764e+07
 -1.58087e+07
 -1.56918e+07
 -1.2155e+07
 1.09189e+08
 5.02623e+07
 3.86747e+07
 6.30646e+06
 -9.04718e+06
 -9.99769e+06
 5.56996e+07
 -2.27272e+07
 3.5104e+07
 -2.27695e+07
 3.32144e+07
 2.68856e+07
 2.10222e+06
 -1.43862e+07
 -2.21572e+07
 3.63591e+07
 -2.26209e+07
 -2.27594e+07
 3.92847e+07
 -2.34974e+07
 -4.73076e+06
 -1.52052e+07
 -1.71521e+07
 -9.66738e+06
 -1.6033e+07
 -2.19838e+07
 1.37212e+07
 -2.29302e+07
 -2.16201e+07
 7.38004e+07
 -1.28526e+07
 3.1361e+07
 -8.83895e+06
 -1.85477e+07
 -2.28781e+07
 1.84569e+08
 -1.87404e+07
 -1.75786e+07
 2.52829e+06
 -2.2694e+07
 -2.31748e+07
 -1.18162e+07
 -1.21643e+07
 -1.67232e+07
 -2.28808e+07
 -2.17948e+07
 -1.7828e+07
 -2.34845e+07
 -2.28843e+07
 -1.14845e+07
 -1.30159e+07
 -7.6921e+06
 -1.84827e+07
 3.30469e+08
 1.73522e+07
 -1.81078e+07
 1.87724e+07
 -2.21986e+07
 9.44139e+06
 -2.28469e+07
 7.8909e+07
 -1.56008e+07
 6.52844e+07
 6.39654e+07
 -1.99716e+07
 -7.15327e+06
 2.01701e+07
 -1.60072e+07
 -7.41214e+06
 -164216
 3.42025e+06
 -1.26824e+07
 -1.61268e+07
 -1.39818e+07
 -2.35345e+07
 -2.37224e+06
 8.6699e+07
 5.89665e+06
 -4.02612e+06
 6.78994e+07
 -2.28421e+07
 -2.18701e+07
 2.65566e+07
 -2.17429e+07
 -1.8464e+07
 9.34253e+07
 2.30488e+07
 -1.81927e+07
 -1.3885e+07
 1.29884e+06
 -1.62184e+07
 -2.20044e+07
 4.69335e+07
 -9.04553e+06
 5.2591e+07
 3.42547e+06
 -2.108e+07
 3.97933e+07
 -2.35075e+07
 -2.20187e+07
 3.37126e+07
 9.08682e+07
 2.04408e+07
 3.72273e+06
 -531806
 5.84802e+07
 -1.09172e+07
 -1.86766e+07
 -1.70928e+07
 2.43447e+07
 -2.17344e+07
 8.45115e+07
 -1.1058e+07
 -1.14623e+07
 -2.3717e+07
 -1.6564e+07
 -2.08154e+07
 -1.14557e+07
 -2.25608e+07
 -8.7915e+06
 5.44322e+07
 5.30594e+07
 -8.73577e+06
 -1.06003e+07
 -7.97596e+06
 5.88578e+06
 -1.7676e+07
 3.01376e+06
 -2.04768e+07
 -2.36558e+07
 8.17291e+06
 -1.58301e+07
 -2.26148e+07
 9.00814e+07
 -1.08726e+07
 -1.67615e+07
 1.314e+07
 3.11761e+08
 -2.13767e+07
 -2.09875e+07
 3.16582e+08
 -2.27132e+07
 4.06444e+06
 3.90537e+07
 -1.19139e+07
 -2.03045e+07
 -1.43383e+07
 -1.1141e+07
 -2.19151e+07
 -4.17474e+06
 -1.98077e+07
 -1.99565e+07
 3.55107e+07
 -4.7473e+06
 -1.98847e+07
 2.66977e+07
 -1.14753e+07
 -1.95458e+07
 4.41227e+06
 -9.89437e+06
 -2.34915e+07
 3.45274e+07
 -1.35681e+07
 -1.40598e+07
 7.80681e+06
 -1.63198e+07
 -1.84031e+07
 7.22722e+07
 3.86241e+06
 3.63851e+06
 -1.41883e+07
 -1.65145e+07
 -1.20215e+07
 6.85402e+07
 -1.47232e+07
 -2.32483e+07
 -2.18648e+07
 -2.05132e+07
 4.2059e+07
 2.20494e+06
 -6.35113e+06
 8.83383e+07
 -2.1794e+07
 -1.08467e+07
 -1.58379e+07
 5.38661e+07
 -2.95127e+06
 3.78894e+07
 -2.14126e+07
 4.55271e+07
 26246.5
 -2.19154e+07
 6.45197e+06
 7.89334e+06
 -1.99306e+07
 -1.84127e+07
 -1.10192e+07
 -1.83599e+07
 1.04596e+07
 -6.24424e+06
 3.74012e+07
 4.86871e+06
 -1.76216e+07
 -1.72013e+07
 -1.49501e+07
 -1.13986e+07
 -1.24144e+07
 -2.35436e+07
 -2.36293e+07
 3.06766e+07
 -2.27134e+07
 -1.74331e+07
 -1.75423e+07
 -6.11071e+06
 -2.09571e+07
 -1.942e+07
 -2.26269e+07
 -2.11467e+06
 -9.41318e+06
 -2.2483e+07
 -2.35438e+07
 -2.03781e+07
 -1.74336e+07
 -1.6545e+07
 1.03762e+07
 -2.35124e+07
 -2.12187e+07
 -1.4463e+07
 1.85043e+07
 -1.7205e+07
 829511
 8.49061e+06
 -2.06862e+07
 -2.50092e+06
 -1.68866e+07
 -5.66155e+06
 -2.35788e+07
 -2.08552e+07
 1.68359e+07
 -1.25784e+07
 -4.41744e+06
 -6.58783e+06
 -1.72664e+07
 -1.27405e+07
 -2.11018e+07
 -2.0051e+07
 -1.67922e+07
 3.13399e+06
 -2.29787e+07
 -1.62969e+07
 -2.2831e+07
 -1.14861e+07
 -2.07725e+07
 2.71253e+07
 -2.31444e+07
 1.32454e+07
 -2.16835e+07
 4.20995e+07
 3.34963e+07
 -2.18943e+07
 -2.15916e+07
 -2.23999e+07
 -1.45837e+07
 8.29313e+07
 -1.289e+07
 -2.02969e+07
 1.18381e+07
 -2.01191e+07
 -7.48418e+06
 -1.25793e+06
 -4.25071e+06
 2.44292e+07
 -1.2355e+07
 -9.39746e+06
 -4.58785e+06
 -2.2772e+07
 -2.28209e+07
 -2.23358e+06
 -4.36187e+06
 2.40684e+08
 2.567e+07
 6.54283e+07
 -1.85029e+07
 -2.0395e+07
 -1.99617e+07
 -1.94476e+07
 -1.07138e+07
 6.18824e+07
 2.236e+06
 1.84589e+08
 -1.86906e+07
 -2.23896e+07
 -1.91888e+07
 1.13458e+07
 2.08912e+07
 -2.38523e+07
 -2.01267e+07
 -1.0176e+07
 -1.13354e+07
 -2.27606e+07
 2.78813e+07
 -1.45638e+07
 4.38567e+07
 4.16304e+07
 -1.06721e+07
 4.22381e+07
 -5.19014e+06
 6.95008e+06
 3.44347e+07
 -1.65069e+07
 -1.07295e+07
 -1.65544e+07
 -1.36534e+07
 9.47363e+07
 -1.73108e+06
 -7.98201e+06
 -1.74247e+07
 -2.11746e+07
 9.43089e+06
 4.61264e+06
 -2.28801e+07
 -4.2912e+06
 -7.02283e+06
 3.78701e+07
 -7.92452e+06
 -6.29779e+06
 -1.9857e+07
 1.53518e+06
 -1.36654e+07
 -1.55102e+07
 -1.6529e+07
 -1.50849e+07
 -1.74175e+07
 -2.20884e+07
 1.70453e+07
 -7.16776e+06
 -1.57231e+07
 -1.83755e+07
 -1.35232e+07
 1.57252e+07
 -2.10006e+07
 5.01645e+06
 -4.32142e+06
 -1.96427e+07
 -4.54895e+06
 3.2883e+07
 -7.61905e+06
 -2.24077e+07
 -6.5733e+06
 -6.92494e+06
 -1.57793e+07
 -2.17674e+07
 -2.34809e+07
 4.41773e+07
 -2.25378e+07
 -1.745e+07
 -2.30696e+07
 -1.57094e+07
 -1.7827e+07
 -1.61428e+07
 -2.23486e+07
 -1.08483e+07
 8.20565e+07
 -2.17512e+07
 -1.21383e+07
 1.93542e+07
 -2.33636e+07
 -1.85394e+07
 -1.94968e+07
 2.09967e+06
 -4.72811e+06
 -2.34864e+06
 -6.71651e+06
 -2.15623e+07
 -2.34528e+07
 7.4117e+07
 6.68432e+07
 1.37372e+08
 3.02959e+06
 -2.28696e+07
 -2.23063e+07
 3.05244e+07
 -1.1844e+07
 710604
 6.90872e+06
 -5.29185e+06
 4.74851e+06
 -1.82974e+07
 -7.91458e+06
 -5.74127e+06
 5.4203e+06
 -1.86162e+07
 -2.00538e+07
 9.16574e+07
 827859
 6.73049e+07
 -2.22548e+07
 -2.22406e+07
 -1.60782e+07
 -1.45846e+07
 -5.45499e+06
 -2.23736e+07
 -2.2304e+07
 4.65518e+07
 -2.20454e+07
 2.26593e+07
 -1.28764e+07
 1.10344e+06
 -1.40908e+07
 -4.20633e+06
 -1.87743e+07
 -1.91529e+07
 -1.48964e+07
 557129
 1.08486e+07
 -2.28608e+07
 -2.26025e+07
 -2.16109e+07
 -2.02065e+07
 2.18559e+07
 -2.13895e+07
 -8.29224e+06
 -1.4502e+07
 -2.21962e+07
 -1.91528e+07
 -2.10442e+06
 -2.29071e+07
 -1.6321e+07
 -2.4286e+07
 1.52044e+07
 -2.23902e+07
 -1.90015e+07
 1.73834e+07
 -1.41326e+07
 2.46687e+07
 -3.69498e+06
 -1.01107e+07
 5.01344e+06
 -2.03214e+07
 -2.33291e+07
 -3.05117e+06
 6.62401e+07
 7.1972e+07
 7.25754e+06
 4.359e+07
 2.24192e+07
 -1.34406e+07
 -2.34208e+07
 -1.15728e+07
 1.20299e+07
 8.8335e+06
 -6.89985e+06
 7.9769e+06
 2.21302e+07
 -2.27845e+07
 -2.8784e+06
 -1.58541e+07
 -8.80183e+06
 -1.28573e+07
 5.49699e+06
 -1.25736e+07
 -1.80721e+07
 -1.48494e+07
 -1.34207e+07
 -2.30733e+07
 -2.27634e+07
 -7.1025e+06
 -2.19081e+07
 -550193
 5.2119e+06
 -1.5324e+07
 -1.65145e+07
 -9.80826e+06
 -1.09539e+07
 -2.29596e+07
 -2.25166e+06
 -1.77159e+07
 -1.57256e+07
 5.63796e+07
 -2.07368e+07
 -2.2437e+07
 6.67591e+07
 -2.18453e+07
 -1.04039e+07
 1.59803e+07
 1.42655e+07
 8.92845e+07
 1.6598e+07
 1.87887e+07
 -1.95148e+07
 -1.7871e+06
 1.75486e+07
 2.52029e+07
 7.73988e+07
 -2.00281e+07
 -7.41316e+06
 -6.8956e+06
 -1.86184e+07
 -1.86155e+07
 -1.50077e+07
 -1.52577e+07
 -1.86816e+07
 4.02982e+07
 2.87295e+08
 2.16291e+07
 -2.31094e+07
 -2.46964e+07
 6.33702e+07
 -2.16267e+07
 3.26637e+07
 -1.26184e+07
 -5.54854e+06
 -1.58842e+07
 -8.55952e+06
 -2.04102e+07
 2.27332e+06
 -1.91991e+07
 -2.35602e+07
 -2.12749e+07
 -1.1683e+07
 -2.28286e+07
 -2.25977e+07
 -1.72723e+07
 8.88877e+06
 -1.62435e+07
 5.31752e+06
 -2.17193e+07
 -1.4451e+07
 -1.09778e+07
 1.22913e+07
 5.90041e+07
 -1.8711e+07
 1.03727e+07
 -1.2055e+07
 -1.74042e+07
 -4.00974e+06
 -1.11514e+07
 -1.34719e+07
 -1.49178e+07
 -1.44475e+07
 -1.3389e+07
 -1.4561e+07
 -1.29914e+07
 -1.30406e+07
 2.70694e+07
 -1.00227e+07
 -2.02473e+07
 -2.19533e+07
 -1.23452e+07
 -1.56451e+07
 -1.63541e+07
 -1.76579e+07
 1.57118e+07
 -2.20629e+07
 -9.31108e+06
 3.47695e+07
 -2.34888e+07
 -1.21847e+07
 1.63867e+07
 -2.37518e+07
 -1.87963e+07
 -1.51743e+07
 1.23347e+07
 -2.11506e+07
 -1.88098e+07
 -2.13983e+07
 -1.6222e+07
 5.91138e+06
 -1.78547e+07
 -1.99306e+06
 -1.91339e+07
 -2.33591e+07
 -2.19636e+07
 -2.13093e+07
 8.19986e+07
 3.24689e+07
 -1.95347e+07
 -1.06365e+07
 6.95178e+07
 -2.02251e+07
 -2.22243e+07
 4.1455e+06
 -7.07564e+06
 -1.48329e+07
 -1.02163e+07
 6.36103e+06
 -1.66127e+07
 1.63905e+06
 1.54672e+07
 -1.82178e+07
 -2.25683e+07
 -1.71637e+07
 -2.15008e+07
 -1.96875e+07
 -1.63832e+07
 3.47723e+06
 5.77835e+07
 -1.64263e+07
 -2.39218e+07
 7.40411e+07
 7.83973e+07
 -2.10469e+07
 8.91185e+07
 -8.61877e+06
 -1.54914e+07
 -1.12527e+07
 -1.34935e+07
 -2.27943e+07
 7.37476e+07
 -2.09133e+07
 6.64197e+07
 -1.48279e+07
 2.95747e+07
 -2.2057e+07
 -2.24432e+07
 9.65289e+07
 -1.63146e+07
 3.58704e+07
 -2.24478e+07
 1.8084e+07
 -9.45102e+06
 -2.09598e+07
 -8.92001e+06
 1.98066e+07
 -1.27121e+07
 -3.03035e+06
 -1.99337e+07
 -8.70334e+06
 -1.66415e+07
 -2.12899e+07
 -3.1136e+06
 -2.01177e+07
 -7.39747e+06
 -1.53597e+07
 -1.19196e+07
 -2.35923e+07
 1.21591e+07
 -1.47295e+07
 2.47838e+06
 -1.62363e+07
 9.36146e+07
 -1.54971e+07
 2.32437e+07
 -1.69261e+07
 -1.51926e+07
 3.6252e+06
 -1.60149e+07
 9.43499e+07
 -1.24087e+07
 1.66226e+07
 -2.09982e+07
 -1.79686e+07
 574942
 7.61378e+07
 -2.31687e+07
 -1.85084e+07
 -2.01271e+07
 -2.29007e+07
 -2.07358e+07
 2.6771e+06
 -2.35578e+07
 1.08783e+07
 5.08413e+07
 -1.03874e+07
 -2.11502e+07
 1.44346e+07
 -1.85131e+07
 -1.2985e+07
 -1.94336e+07
 2.37863e+07
 -2.06987e+07
 -2.26953e+07
 -1.85599e+07
 -1.6408e+06
 -1.74618e+07
 -2.14296e+07
 -1.58951e+07
 -2.09388e+06
 9.84855e+07
 -1.80873e+07
 -1.47126e+07
 -2.23615e+07
 -1.08974e+07
 -1.4243e+07
 -4.36473e+06
 -1.28469e+07
 -1.66242e+07
 -2.31131e+07
 -5.13058e+06
 -1.04899e+07
 -1.35764e+07
 -1.54709e+07
 -1.7858e+07
 -2.24035e+07
 -1.45809e+07
 -2.27346e+07
 -1.39236e+06
 -1.2578e+07
 1.1799e+06
 -2.04169e+07
 -1.07441e+07
 -1.24708e+07
 1.14221e+06
 -1.38882e+07
 -1.23064e+07
 -1.91012e+07
 -2.03576e+07
 -2.30727e+07
 8.37807e+06
 -2.16138e+07
 -2.1886e+07
 -2.26554e+07
 -1.03501e+07
 -2.02358e+07
 -1.67637e+07
 -2.09868e+07
 -932645
 -1.94371e+07
 744855
 -2.39466e+07
 -2.08359e+07
 -2.16455e+07
 -9.46343e+06
 -1.26792e+07
 -1.98717e+07
 -2.13798e+07
 -1.75668e+07
 2.07469e+07
 -2.12765e+07
 -2.19675e+07
 -2.13905e+07
 -1.48768e+07
 -2.23567e+07
 -3.60326e+06
 -1.6389e+07
 -5.6456e+06
 -2.31112e+07
 -2.26915e+07
 -2.18021e+07
 -2.33605e+07
 -1.37373e+06
 -5.71606e+06
 -1.47238e+07
 -1.55784e+07
 -2.1478e+07
 -7.86446e+06
 -5.29783e+06
 -1.61846e+07
 4.79179e+06
 -1.37169e+07
 3.16463e+07
 -2.23887e+07
 1.81083e+07
 -1.58673e+07
 -7.75237e+06
 -6.28761e+06
 -2.1946e+07
 3.24773e+07
 -2.21518e+07
 -2.21614e+07
 -2.06666e+07
 -2.13101e+07
 8.40624e+07
 -1.38213e+07
 9.3514e+06
 1.55866e+07
 -2.3644e+07
 -2.33009e+07
 -2.1098e+07
 2.9277e+08
 -1.77177e+07
 7.86549e+07
 2.40063e+07
 685069
 -8.59527e+06
 -5.9235e+06
 -2.05353e+07
 -1.34969e+07
 3.27057e+07
 -1.72101e+07
 -2.2957e+07
 -2.03234e+07
 -1.04101e+07
 -1.49849e+07
 6.57746e+07
 -2.46237e+07
 -1.47913e+07
 -2.02127e+07
 2.00493e+08
 -1.32231e+07
 9.44049e+06
 -1.93619e+07
 -1.74585e+07
 -1.92154e+07
 6.79246e+07
 -1.4828e+07
 -3.27475e+06
 -1.97703e+07
 -1.71463e+07
 -1.99731e+07
 1.92948e+07
 -1.89816e+07
 8.05436e+07
 7.63032e+07
 9.64956e+06
 8.44346e+07
 -1.66366e+07
 -1.74429e+07
 -1.56922e+07
 3.4275e+06
 -2.25917e+07
 -2.29732e+07
 7.88235e+07
 -1.77983e+07
 1.17578e+08
 4.49615e+07
 6.47619e+07
 -1.44851e+07
 7.29113e+07
 -2.28269e+07
 1.06668e+07
 -2.32359e+07
 1.91058e+07
 -27470.2
 -2.31843e+07
 -1.38017e+07
 1.51846e+08
 -9.06185e+06
 -2.39457e+07
 -1.66414e+07
 -2.12992e+07
 5.70217e+06
 -2.06217e+07
 -2.22907e+07
 -1.65976e+07
 -8.37713e+06
 -2.15778e+07
 1.33787e+07
 -8.67911e+06
 -1.00542e+07
 -5.09627e+06
 -2.30894e+07
 -9.34913e+06
 7.20554e+06
 2.11442e+07
 -2.18953e+07
 1.92501e+07
 -2.08386e+07
 -5.83638e+06
 -2.16741e+07
 -1.66387e+07
 -1.87305e+07
 -1.48254e+07
 -7.11468e+06
 -2.21969e+07
 -8.87629e+06
 -2.05113e+07
 -1.9024e+06
 1.9884e+06
 3.90862e+07
 1.30211e+07
 -2.12581e+07
 -2.23599e+07
 -2.2807e+07
 -1.23831e+07
 -2.30874e+07
 -1.15234e+07
 -1.9072e+07
 -2.18421e+07
 -2.26053e+07
 -3.55884e+06
 -2.18927e+07
 -6.42453e+06
 1.33058e+07
 -1.51576e+07
 -1.74368e+07
 -1.83105e+07
 -1.3656e+07
 -4.23582e+06
 -1.86021e+07
 -1.83315e+07
 -2.35277e+07
 4.69367e+07
 9.31386e+07
 -7.5813e+06
 3.23949e+07
 1.01568e+08
 4.49739e+06
 1.63932e+07
 6.84184e+06
 -6.7765e+06
 -1.43815e+07
 -868263

Vol_HEAT_Q 1 1000 FLOAT 
 -2157.13
 43557.6
 -7790.38
 25855.4
 -8910.32
 -8620.26
 14784.8
 -6546.95
 8886.39
 -3878.97
 -4100.13
 -7513.6
 -7311.94
 20229
 14371.7
 17357
 -3351.75
 73132.4
 34585.7
 3988.02
 -8110.6
 8902.18
 10844.9
 -15885.3
 -19495.2
 -3674.03
 -13016.8
 -12796
 -9456.04
 -291.064
 -9538.33
 12930.4
 -5305.95
 7106.63
 -14082.9
 88257.7
 -11152.1
 -12711
 -10446.4
 -8641.55
 37911.7
 4881.78
 11200.8
 18216.3
 -26048.1
 -31482
 99241.4
 -12665.9
 10773.2
 2000.37
 -8983.57
 -14467.3
 27905.9
 -10812.7
 -31453.2
 -7321.2
 6979.28
 -14292.7
 179.783
 -8653.36
 22153.1
 -12664.4
 7331.53
 -14405.8
 38941.8
 -16709.1
 -11122.7
 -503.256
 4752.86
 -9363.52
 -7817.87
 -6469.69
 10766.1
 -12557.7
 -19981.4
 -20602.5
 -15803.3
 -12620.3
 -10367.8
 -6682.19
 7969.68
 10851.1
 26532.8
 -2489.56
 8480.01
 -13777.8
 33772.2
 -7665.28
 -7322.75
 -3879.73
 -2922.36
 82940.4
 -3014.99
 -9911.43
 -10868.9
 -12382.1
 -4109.3
 -7794.99
 -6376.36
 -4409.8
 5875.09
 31283.6
 -10447.7
 -8157.56
 -10909.3
 -10828.7
 -6710.37
 48223.7
 17758.8
 10931.7
 2228.22
 -3995.72
 -5519.39
 38437.4
 -19604.6
 30280.9
 -15712.9
 18336.6
 11874.1
 742.764
 -6353.7
 -12232.3
 25090.9
 -19512.9
 -24540.5
 42359
 -20268.9
 -3264.62
 -8394.28
 -7575.28
 -5337.04
 -11064.1
 -18963.3
 14795
 -30905.8
 -29140
 79575.7
 -11086.7
 21641.7
 -4879.69
 -12799.5
 -19734.8
 199013
 -25258.6
 -29615.9
 4259.61
 -30587.4
 -24988.4
 -10192.7
 -8394.37
 -11540.4
 -19737.1
 -23500.4
 -24028.9
 -39566.1
 -38554.9
 -15479.1
 -14034.4
 -6635.24
 -12754.6
 182441
 11974.5
 -15619.8
 20241.5
 -29919.8
 12725.3
 -24634.8
 68067.3
 -10765.9
 36041.4
 28250.5
 -11025.6
 -4936.35
 17398.9
 -17259.8
 -7992.18
 -141.653
 2360.26
 -7001.53
 -7122.47
 -4940.09
 -10394.1
 -1309.63
 59829.6
 5086.47
 -3472.95
 46856.3
 -12610.4
 -9658.99
 9383.07
 -6145.82
 -6523.77
 41261.6
 12724.5
 -12554.5
 -9581.82
 717.049
 -7162.92
 -7774.66
 13266.2
 -3195.99
 23227
 1891.09
 -14546.9
 34325.9
 -20277.7
 -15194.7
 18611.6
 40132.3
 7222.2
 1644.16
 -293.593
 40356.2
 -9417.24
 -20138.2
 -18430.4
 20999.9
 -14998.6
 46656
 -4883.81
 -6327.93
 -16366.7
 -14288.1
 -22444.3
 -15440.2
 -30408
 -9479.49
 46953.5
 36615.4
 -4822.73
 -7315.12
 -6880.1
 6346.38
 -23824.1
 5077.52
 -34498.8
 -31883.7
 8812.48
 -13655.1
 -15606.1
 77704.7
 -11723.4
 -22591.5
 22137.9
 656559
 -45018.7
 -35359.2
 426695
 -24490.7
 3506
 33687.9
 -12846.2
 -27366.8
 -24156.8
 -23462.5
 -46152.6
 -7033.5
 -26697.2
 -21518.2
 30631.7
 -3276.03
 -17152.6
 28786.9
 -15466.6
 -32930.3
 7433.68
 -13335.8
 -25329.8
 29783.5
 -9363.11
 -7761.94
 5387.36
 -14077.6
 -19843.2
 97409.9
 5205.83
 3923.25
 -12238.9
 -11396.4
 -6636.66
 30271
 -8128.21
 -16043.3
 -18860.7
 -22118.5
 45350.4
 1901.99
 -4382.81
 48768.6
 -9625.38
 -3832.38
 -6994.88
 29737.7
 -2036.62
 32683.6
 -18470.6
 31417.5
 14.4898
 -9679.02
 2279.63
 3486.12
 -11003
 -12706.3
 -9505.23
 -19796.7
 11278.1
 -5386.31
 25809.9
 2687.85
 -7782.66
 -9496.29
 -10316.8
 -9832.46
 -13385.9
 -31732.5
 -31848
 33077.2
 -19592.7
 -12030.3
 -9684.53
 -4216.9
 -18077.7
 -20939.7
 -30497
 -3562.74
 -15859.1
 -30303
 -25386.3
 -17578.3
 -12030.7
 -14271.8
 11188.2
 -31690.5
 -35748.7
 -30458.5
 38969.4
 -28986.5
 1118.03
 9155.05
 -17844
 -2696.63
 -22760.1
 -9538.44
 -49656.3
 -54900.6
 44319.7
 -26489.8
 -7442.39
 -8879.21
 -18617.6
 -13737.5
 -28441.4
 -33781.4
 -35363.9
 8250.1
 -60490.6
 -34320.8
 -38465
 -15481.2
 -22398.1
 23398.4
 -24955.6
 17852.4
 -36531.7
 88660.2
 70542.2
 -36887
 -29101.5
 -24152.8
 -12580
 57229.5
 -11118.9
 -21885.3
 15955.6
 -33896.1
 -12609.2
 -1695.47
 -4583.36
 21072.7
 -8525.97
 -5188.03
 -3166
 -19643.2
 -24606.8
 -3010.46
 -5879.02
 259519
 22143.1
 45151
 -10214.8
 -9007.54
 -11020.2
 -13420.5
 -9241.8
 66725.1
 2410.98
 159227
 -12898.1
 -12360.5
 -8474.8
 6263.66
 14416.7
 -20575.1
 -21701.7
 -13715.4
 -15278.1
 -24541.8
 24050.5
 -10050.3
 24211.8
 28728.5
 -9205.82
 45543.5
 -6995.37
 11709.3
 58014.8
 -22248.4
 -11569.2
 -14279.9
 -9422
 81720
 -1866.55
 -10758.3
 -29356.7
 -44592.9
 19861.2
 7771.26
 -30838.2
 -4627.01
 -6057.93
 40833.6
 -10680.8
 -10610.4
 -41818.2
 4041.31
 -35973.6
 -32663.9
 -27847.7
 -20331.7
 -18780.5
 -29771.2
 28717.5
 -15095.1
 -41390.6
 -60466
 -44499.1
 41396
 -44226.6
 8451.59
 -5824.5
 -26474.8
 -7663.96
 69250.6
 -20056.9
 -73734.2
 -21629.9
 -18229.6
 -33230.6
 -36673.2
 -31648
 47634.4
 -30376.9
 -29399.3
 -48583.8
 -41354.3
 -46928.9
 -33996.2
 -37652.4
 -14621.5
 88477.9
 -18762.7
 -13088.2
 26086
 -39362.4
 -39043.4
 -41059.7
 3537.47
 -6372.64
 -2532.43
 -5793.69
 -14879.8
 -20230.5
 79917.1
 90092.7
 231440
 5104.18
 -30824.1
 -24051.9
 26330.5
 -8173.34
 392.301
 4767.6
 -4564.78
 5120.1
 -24661.6
 -10667.4
 -6190.56
 4675.58
 -12846.7
 -11071.1
 50601
 571.292
 58057.5
 -23996.3
 -29976.3
 -21670.5
 -15725.9
 -4705.5
 -15439.7
 -12313.3
 32124.6
 -19016.4
 24432.5
 -17355.1
 1859.05
 -23739.9
 -5669.38
 -20243.5
 -16521.4
 -10279.8
 480.582
 11697.6
 -30812.2
 -38080
 -45511.9
 -42554.2
 36822.2
 -28829.2
 -8941.15
 -12509.5
 -23933.2
 -25814.5
 -3545.48
 -48241.7
 -42964.3
 -63931.9
 32019.9
 -37722.5
 -25610.7
 18743.7
 -19048.2
 41561.2
 -7781.51
 -26616
 16497.1
 -66869
 -61413
 -6425.67
 111600
 97005.3
 9781.85
 73439.3
 47214.2
 -35381.8
 -77067.9
 -38081.1
 31668.3
 18603.1
 -11624.7
 10751.4
 23862
 -30709.5
 -4849.45
 -33388.2
 -23170.5
 -33846.3
 11576.5
 -21183.7
 -24357.9
 -16011.4
 -11576.7
 -24878.9
 -30680.9
 -11966.1
 -46137.8
 -1158.69
 8780.88
 -20654
 -17806.9
 -8460.65
 -7559.13
 -19805.1
 -2427.86
 -23877.9
 -26494.1
 94987
 -27949.5
 -24192.8
 57586.7
 -15075.1
 -5743.64
 11027.8
 12305.5
 96271.5
 22371.1
 25323.8
 -21042
 -1541.56
 12110
 13913.7
 34183.5
 -11056.8
 -5115.7
 -5948.18
 -20075.4
 -20072.2
 -12945.7
 -10529.1
 -10313.5
 17797.8
 158606
 14925.9
 -19934.3
 -26629.1
 85411.6
 -29148.9
 35219.8
 -10884.7
 -3828.95
 -8769.17
 -5906.79
 -17605.9
 2451.23
 -25877
 -39693.7
 -35843.5
 -15746.6
 -24615
 -19492.9
 -11919.3
 7667.5
 -17514.6
 7167.06
 -36592.1
 -30433.4
 -23118.9
 20708
 79526.9
 -20175.2
 8947.56
 -12998.4
 -23457.7
 -6755.51
 -23484.6
 -35464.2
 -39270.5
 -30426
 -22557.4
 -19625.6
 -14008
 -14061.1
 36484.7
 -16886.1
 -42640.1
 -57791.2
 -32498.3
 -32948
 -27552.9
 -23799.6
 16941.3
 -19031.5
 -10039.7
 46863
 -39573.3
 -25660.7
 34509.9
 -40016.4
 -25334.1
 -16361.8
 10639.9
 -14595.7
 -16225.4
 -23072.9
 -21864.4
 9959.35
 -30081.1