# vtk DataFile Version 2.0
Three-D cube divergence of heat flux and Q in volume elements
ASCII
DATASET UNSTRUCTURED_GRID

POINTS  1331  FLOAT
 -0.5 -0.5 -0.5
 -0.439077 -0.5 -0.5
 -0.362922 -0.5 -0.5
 -0.26773 -0.5 -0.5
 -0.148739 -0.5 -0.5
 0 -0.5 -0.5
 0.148739 -0.5 -0.5
 0.26773 -0.5 -0.5
 0.362922 -0.5 -0.5
 0.439077 -0.5 -0.5
 0.5 -0.5 -0.5
 -0.5 -0.439077 -0.5
 -0.439077 -0.439077 -0.5
 -0.362922 -0.439077 -0.5
 -0.26773 -0.439077 -0.5
 -0.148739 -0.439077 -0.5
 0 -0.439077 -0.5
 0.148739 -0.439077 -0.5
 0.26773 -0.439077 -0.5
 0.362922 -0.439077 -0.5
 0.439077 -0.439077 -0.5
 0.5 -0.439077 -0.5
 -0.5 -0.362922 -0.5
 -0.439077 -0.362922 -0.5
 -0.362922 -0.362922 -0.5
 -0.26773 -0.362922 -0.5
 -0.148739 -0.362922 -0.5
 0 -0.362922 -0.5
 0.148739 -0.362922 -0.5
 0.26773 -0.362922 -0.5
 0.362922 -0.362922 -0.5
 0.439077 -0.362922 -0.5
 0.5 -0.362922 -0.5
 -0.5 -0.26773 -0.5
 -0.439077 -0.26773 -0.5
 -0.362922 -0.26773 -0.5
 -0.26773 -0.26773 -0.5
 -0.148739 -0.26773 -0.5
 0 -0.26773 -0.5
 0.148739 -0.26773 -0.5
 0.26773 -0.26773 -0.5
 0.362922 -0.26773 -0.5
 0.439077 -0.26773 -0.5
 0.5 -0.26773 -0.5
 -0.5 -0.148739 -0.5
 -0.439077 -0.148739 -0.5
 -0.362922 -0.148739 -0.5
 -0.26773 -0.148739 -0.5
 -0.148739 -0.148739 -0.5
 0 -0.148739 -0.5
 0.148739 -0.148739 -0.5
 0.26773 -0.148739 -0.5
 0.362922 -0.148739 -0.5
 0.439077 -0.148739 -0.5
 0.5 -0.148739 -0.5
 -0.5 0 -0.5
 -0.439077 0 -0.5
 -0.362922 0 -0.5
 -0.26773 0 -0.5
 -0.148739 0 -0.5
 0 0 -0.5
 0.148739 0 -0.5
 0.26773 0 -0.5
 0.362922 0 -0.5
 0.439077 0 -0.5
 0.5 0 -0.5
 -0.5 0.148739 -0.5
 -0.439077 0.148739 -0.5
 -0.362922 0.148739 -0.5
 -0.26773 0.148739 -0.5
 -0.148739 0.148739 -0.5
 0 0.148739 -0.5
 0.148739 0.148739 -0.5
 0.26773 0.148739 -0.5
 0.362922 0.148739 -0.5
 0.439077 0.148739 -0.5
 0.5 0.148739 -0.5
 -0.5 0.26773 -0.5
 -0.439077 0.26773 -0.5
 -0.362922 0.26773 -0.5
 -0.26773 0.26773 -0.5
 -0.148739 0.26773 -0.5
 0 0.26773 -0.5
 0.148739 0.26773 -0.5
 0.26773 0.26773 -0.5
 0.362922 0.26773 -0.5
 0.439077 0.26773 -0.5
 0.5 0.26773 -0.5
 -0.5 0.362922 -0.5
 -0.439077 0.362922 -0.5
 -0.362922 0.362922 -0.5
 -0.26773 0.362922 -0.5
 -0.148739 0.362922 -0.5
 0 0.362922 -0.5
 0.148739 0.362922 -0.5
 0.26773 0.362922 -0.5
 0.362922 0.362922 -0.5
 0.439077 0.362922 -0.5
 0.5 0.362922 -0.5
 -0.5 0.439077 -0.5
 -0.439077 0.439077 -0.5
 -0.362922 0.439077 -0.5
 -0.26773 0.439077 -0.5
 -0.148739 0.439077 -0.5
 0 0.439077 -0.5
 0.148739 0.439077 -0.5
 0.26773 0.439077 -0.5
 0.362922 0.439077 -0.5
 0.439077 0.439077 -0.5
 0.5 0.439077 -0.5
 -0.5 0.5 -0.5
 -0.439077 0.5 -0.5
 -0.362922 0.5 -0.5
 -0.26773 0.5 -0.5
 -0.148739 0.5 -0.5
 0 0.5 -0.5
 0.148739 0.5 -0.5
 0.26773 0.5 -0.5
 0.362922 0.5 -0.5
 0.439077 0.5 -0.5
 0.5 0.5 -0.5
 -0.5 -0.5 -0.439077
 -0.439077 -0.5 -0.439077
 -0.362922 -0.5 -0.439077
 -0.26773 -0.5 -0.439077
 -0.148739 -0.5 -0.439077
 0 -0.5 -0.439077
 0.148739 -0.5 -0.439077
 0.26773 -0.5 -0.439077
 0.362922 -0.5 -0.439077
 0.439077 -0.5 -0.439077
 0.5 -0.5 -0.439077
 -0.5 -0.439077 -0.439077
 -0.439077 -0.439077 -0.439077
 -0.362922 -0.439077 -0.439077
 -0.26773 -0.439077 -0.439077
 -0.148739 -0.439077 -0.439077
 0 -0.439077 -0.439077
 0.148739 -0.439077 -0.439077
 0.26773 -0.439077 -0.439077
 0.362922 -0.439077 -0.439077
 0.439077 -0.439077 -0.439077
 0.5 -0.439077 -0.439077
 -0.5 -0.362922 -0.439077
 -0.439077 -0.362922 -0.439077
 -0.362922 -0.362922 -0.439077
 -0.26773 -0.362922 -0.439077
 -0.148739 -0.362922 -0.439077
 0 -0.362922 -0.439077
 0.148739 -0.362922 -0.439077
 0.26773 -0.362922 -0.439077
 0.362922 -0.362922 -0.439077
 0.439077 -0.362922 -0.439077
 0.5 -0.362922 -0.439077
 -0.5 -0.26773 -0.439077
 -0.439077 -0.26773 -0.439077
 -0.362922 -0.26773 -0.439077
 -0.26773 -0.26773 -0.439077
 -0.148739 -0.26773 -0.439077
 0 -0.26773 -0.439077
 0.148739 -0.26773 -0.439077
 0.26773 -0.26773 -0.439077
 0.362922 -0.26773 -0.439077
 0.439077 -0.26773 -0.439077
 0.5 -0.26773 -0.439077
 -0.5 -0.148739 -0.439077
 -0.439077 -0.148739 -0.439077
 -0.362922 -0.148739 -0.439077
 -0.26773 -0.148739 -0.439077
 -0.148739 -0.148739 -0.439077
 0 -0.148739 -0.439077
 0.148739 -0.148739 -0.439077
 0.26773 -0.148739 -0.439077
 0.362922 -0.148739 -0.439077
 0.439077 -0.148739 -0.439077
 0.5 -0.148739 -0.439077
 -0.5 0 -0.439077
 -0.439077 0 -0.439077
 -0.362922 0 -0.439077
 -0.26773 0 -0.439077
 -0.148739 0 -0.439077
 0 0 -0.439077
 0.148739 0 -0.439077
 0.26773 0 -0.439077
 0.362922 0 -0.439077
 0.439077 0 -0.439077
 0.5 0 -0.439077
 -0.5 0.148739 -0.439077
 -0.439077 0.148739 -0.439077
 -0.362922 0.148739 -0.439077
 -0.26773 0.148739 -0.439077
 -0.148739 0.148739 -0.439077
 0 0.148739 -0.439077
 0.148739 0.148739 -0.439077
 0.26773 0.148739 -0.439077
 0.362922 0.148739 -0.439077
 0.439077 0.148739 -0.439077
 0.5 0.148739 -0.439077
 -0.5 0.26773 -0.439077
 -0.439077 0.26773 -0.439077
 -0.362922 0.26773 -0.439077
 -0.26773 0.26773 -0.439077
 -0.148739 0.26773 -0.439077
 0 0.26773 -0.439077
 0.148739 0.26773 -0.439077
 0.26773 0.26773 -0.439077
 0.362922 0.26773 -0.439077
 0.439077 0.26773 -0.439077
 0.5 0.26773 -0.439077
 -0.5 0.362922 -0.439077
 -0.439077 0.362922 -0.439077
 -0.362922 0.362922 -0.439077
 -0.26773 0.362922 -0.439077
 -0.148739 0.362922 -0.439077
 0 0.362922 -0.439077
 0.148739 0.362922 -0.439077
 0.26773 0.362922 -0.439077
 0.362922 0.362922 -0.439077
 0.439077 0.362922 -0.439077
 0.5 0.362922 -0.439077
 -0.5 0.439077 -0.439077
 -0.439077 0.439077 -0.439077
 -0.362922 0.439077 -0.439077
 -0.26773 0.439077 -0.439077
 -0.148739 0.439077 -0.439077
 0 0.439077 -0.439077
 0.148739 0.439077 -0.439077
 0.26773 0.439077 -0.439077
 0.362922 0.439077 -0.439077
 0.439077 0.439077 -0.439077
 0.5 0.439077 -0.439077
 -0.5 0.5 -0.439077
 -0.439077 0.5 -0.439077
 -0.362922 0.5 -0.439077
 -0.26773 0.5 -0.439077
 -0.148739 0.5 -0.439077
 0 0.5 -0.439077
 0.148739 0.5 -0.439077
 0.26773 0.5 -0.439077
 0.362922 0.5 -0.439077
 0.439077 0.5 -0.439077
 0.5 0.5 -0.439077
 -0.5 -0.5 -0.362922
 -0.439077 -0.5 -0.362922
 -0.362922 -0.5 -0.362922
 -0.26773 -0.5 -0.362922
 -0.148739 -0.5 -0.362922
 0 -0.5 -0.362922
 0.148739 -0.5 -0.362922
 0.26773 -0.5 -0.362922
 0.362922 -0.5 -0.362922
 0.439077 -0.5 -0.362922
 0.5 -0.5 -0.362922
 -0.5 -0.439077 -0.362922
 -0.439077 -0.439077 -0.362922
 -0.362922 -0.439077 -0.362922
 -0.26773 -0.439077 -0.362922
 -0.148739 -0.439077 -0.362922
 0 -0.439077 -0.362922
 0.148739 -0.439077 -0.362922
 0.26773 -0.439077 -0.362922
 0.362922 -0.439077 -0.362922
 0.439077 -0.439077 -0.362922
 0.5 -0.439077 -0.362922
 -0.5 -0.362922 -0.362922
 -0.439077 -0.362922 -0.362922
 -0.362922 -0.362922 -0.362922
 -0.26773 -0.362922 -0.362922
 -0.148739 -0.362922 -0.362922
 0 -0.362922 -0.362922
 0.148739 -0.362922 -0.362922
 0.26773 -0.362922 -0.362922
 0.362922 -0.362922 -0.362922
 0.439077 -0.362922 -0.362922
 0.5 -0.362922 -0.362922
 -0.5 -0.26773 -0.362922
 -0.439077 -0.26773 -0.362922
 -0.362922 -0.26773 -0.362922
 -0.26773 -0.26773 -0.362922
 -0.148739 -0.26773 -0.362922
 0 -0.26773 -0.362922
 0.148739 -0.26773 -0.362922
 0.26773 -0.26773 -0.362922
 0.362922 -0.26773 -0.362922
 0.439077 -0.26773 -0.362922
 0.5 -0.26773 -0.362922
 -0.5 -0.148739 -0.362922
 -0.439077 -0.148739 -0.362922
 -0.362922 -0.148739 -0.362922
 -0.26773 -0.148739 -0.362922
 -0.148739 -0.148739 -0.362922
 0 -0.148739 -0.362922
 0.148739 -0.148739 -0.362922
 0.26773 -0.148739 -0.362922
 0.362922 -0.148739 -0.362922
 0.439077 -0.148739 -0.362922
 0.5 -0.148739 -0.362922
 -0.5 0 -0.362922
 -0.439077 0 -0.362922
 -0.362922 0 -0.362922
 -0.26773 0 -0.362922
 -0.148739 0 -0.362922
 0 0 -0.362922
 0.148739 0 -0.362922
 0.26773 0 -0.362922
 0.362922 0 -0.362922
 0.439077 0 -0.362922
 0.5 0 -0.362922
 -0.5 0.148739 -0.362922
 -0.439077 0.148739 -0.362922
 -0.362922 0.148739 -0.362922
 -0.26773 0.148739 -0.362922
 -0.148739 0.148739 -0.362922
 0 0.148739 -0.362922
 0.148739 0.148739 -0.362922
 0.26773 0.148739 -0.362922
 0.362922 0.148739 -0.362922
 0.439077 0.148739 -0.362922
 0.5 0.148739 -0.362922
 -0.5 0.26773 -0.362922
 -0.439077 0.26773 -0.362922
 -0.362922 0.26773 -0.362922
 -0.26773 0.26773 -0.362922
 -0.148739 0.26773 -0.362922
 0 0.26773 -0.362922
 0.148739 0.26773 -0.362922
 0.26773 0.26773 -0.362922
 0.362922 0.26773 -0.362922
 0.439077 0.26773 -0.362922
 0.5 0.26773 -0.362922
 -0.5 0.362922 -0.362922
 -0.439077 0.362922 -0.362922
 -0.362922 0.362922 -0.362922
 -0.26773 0.362922 -0.362922
 -0.148739 0.362922 -0.362922
 0 0.362922 -0.362922
 0.148739 0.362922 -0.362922
 0.26773 0.362922 -0.362922
 0.362922 0.362922 -0.362922
 0.439077 0.362922 -0.362922
 0.5 0.362922 -0.362922
 -0.5 0.439077 -0.362922
 -0.439077 0.439077 -0.362922
 -0.362922 0.439077 -0.362922
 -0.26773 0.439077 -0.362922
 -0.148739 0.439077 -0.362922
 0 0.439077 -0.362922
 0.148739 0.439077 -0.362922
 0.26773 0.439077 -0.362922
 0.362922 0.439077 -0.362922
 0.439077 0.439077 -0.362922
 0.5 0.439077 -0.362922
 -0.5 0.5 -0.362922
 -0.439077 0.5 -0.362922
 -0.362922 0.5 -0.362922
 -0.26773 0.5 -0.362922
 -0.148739 0.5 -0.362922
 0 0.5 -0.362922
 0.148739 0.5 -0.362922
 0.26773 0.5 -0.362922
 0.362922 0.5 -0.362922
 0.439077 0.5 -0.362922
 0.5 0.5 -0.362922
 -0.5 -0.5 -0.26773
 -0.439077 -0.5 -0.26773
 -0.362922 -0.5 -0.26773
 -0.26773 -0.5 -0.26773
 -0.148739 -0.5 -0.26773
 0 -0.5 -0.26773
 0.148739 -0.5 -0.26773
 0.26773 -0.5 -0.26773
 0.362922 -0.5 -0.26773
 0.439077 -0.5 -0.26773
 0.5 -0.5 -0.26773
 -0.5 -0.439077 -0.26773
 -0.439077 -0.439077 -0.26773
 -0.362922 -0.439077 -0.26773
 -0.26773 -0.439077 -0.26773
 -0.148739 -0.439077 -0.26773
 0 -0.439077 -0.26773
 0.148739 -0.439077 -0.26773
 0.26773 -0.439077 -0.26773
 0.362922 -0.439077 -0.26773
 0.439077 -0.439077 -0.26773
 0.5 -0.439077 -0.26773
 -0.5 -0.362922 -0.26773
 -0.439077 -0.362922 -0.26773
 -0.362922 -0.362922 -0.26773
 -0.26773 -0.362922 -0.26773
 -0.148739 -0.362922 -0.26773
 0 -0.362922 -0.26773
 0.148739 -0.362922 -0.26773
 0.26773 -0.362922 -0.26773
 0.362922 -0.362922 -0.26773
 0.439077 -0.362922 -0.26773
 0.5 -0.362922 -0.26773
[...]
CELL_DATA 1000
FIELD DOMAIN 2
VOL_DIV_q 1 1000 FLOAT 
 112522
 47837.6
 33410.6
 27959.6
 25107.6
 25661.9
 27326.1
 33815.3
 48181.9
 109515
 110872
 47603.2
 33708.3
 28055.1
 23643.6
 24505.8
 29786.5
 35253.7
 47676
 110147
 114112
 47331.5
 34159.4
 27909
 25035.6
 24497.3
 28350.7
 33800.3
 47550.9
 111364
 107036
 47920.7
 32822.5
 26605.9
 25153.8
 24657.3
 27549.4
 33501.2
 46514
 111542
 115628
 48643.9
 33582.5
 28351.7
 25323.5
 24651.5
 28322.6
 34409.4
 50208.7
 113508
 112790
 48641.4
 35679.7
 25849.9
 26143.6
 24605.3
 27727.1
 34418.1
 48690.3
 108471
 109617
 46214
 33661.2
 26093.8
 25063.6
 24492.1
 29020.5
 34992.5
 49078.6
 115168
 111501
 47936.8
 35218.2
 26930
 25726.9
 26997.3
 28089.2
 33361.4
 49355.5
 113636
 112712
 50610.3
 36696.3
 26726.8
 24535.6
 24363.8
 26937.1
 33879.8
 48001.2
 114648
 109999
 47129.2
 33671.4
 27298.5
 24747
 24316
 28562.7
 33569
 48798.3
 115540
 110450
 46316.8
 34508.6
 27012.8
 24175.2
 24824.1
 28104.3
 34981.5
 47314.8
 111720
 108070
 49735.3
 34706
 28384
 23879.5
 24718.8
 29239
 34554.5
 47590.1
 116833
 114149
 47890.5
 34241.6
 27313.7
 24507
 24827
 28594.9
 33679.9
 50038.8
 112013
 106868
 48253.7
 34119.1
 27266.6
 24530.3
 24295.1
 28363.8
 34514.9
 46866.1
 114039
 113575
 47333.5
 33369.5
 26357.8
 24887.6
 25220.9
 28648.8
 33764.9
 45926.8
 116187
 115736
 49575.3
 32848.5
 27870.2
 26103.5
 25281.6
 27118.9
 34902.2
 46440.7
 110203
 111981
 49124.6
 34198.7
 27786.3
 24964.9
 24824.5
 27010.2
 33614.2
 48632.8
 112995
 116814
 49283.3
 35033.3
 28411.9
 24986.4
 23003.9
 29773.6
 34432.8
 49430.2
 106346
 108956
 49087.2
 34795.9
 27597.2
 25424.4
 25316.6
 27621.1
 33148.8
 46640.7
 116416
 113124
 48079.7
 35371.5
 27459.3
 24509.1
 25118.3
 26890.7
 33690
 45728.6
 114515
 112055
 49343.4
 33652.6
 27961
 24957
 24640.1
 27734.9
 34420.1
 48579.7
 116136
 111496
 45187.8
 34835.8
 27104
 24414.3
 24878.8
 26861.3
 33591.8
 49838.4
 111655
 111236
 48653.9
 34640.6
 27220.9
 24820.1
 24329.4
 27179.2
 33591
 46690.8
 111845
 110755
 49497.1
 34713.6
 28513.6
 24399.1
 24103.7
 26805.3
 33597.1
 47294.8
 108806
 113887
 49708.3
 33464
 28580.1
 24635.8
 24584.5
 26645.1
 34873.2
 47978.2
 112263
 109267
 46875.2
 33347.9
 27678.9
 26000
 25280.8
 26957.1
 34184.3
 47490.9
 110576
 110369
 47088.7
 35485.6
 27878.7
 25618.5
 25709
 28666.1
 35287
 49767.2
 115178
 111113
 47131.4
 32817.4
 28599.5
 25712.3
 24119.1
 28469.8
 33506.6
 47954.8
 111205
 108856
 49576.5
 34737
 29428
 24186.9
 23823.3
 28935.5
 33906.9
 48872.6
 114681
 113664
 48636.5
 34150.5
 28116.3
 24529
 24732.3
 27019.4
 32269.1
 46872.7
 108510
 113591
 46947.9
 33199.5
 28916.2
 24535.7
 24309.5
 26662.2
 34183.4
 47670.1
 110584
 116002
 49115.2
 35890.1
 27153
 24964.7
 24580.9
 27447.6
 33401.3
 47136.1
 113486
 109870
 46157.4
 33136.6
 28008.1
 24949.6
 25105.3
 28076
 35944
 49177.4
 111670
 111042
 49227.3
 35447.9
 26407
 25885.6
 25216.2
 27813.9
 34090.4
 48002.5
 109772
 112536
 47615.7
 35331
 28766.4
 24540.9
 24282.6
 27334.5
 33611.1
 48631.7
 110419
 111811
 48028.1
 34810.4
 26407.6
 23396
 24694.4
 27533.6
 35088.4
 48288.5
 111025
 110513
 49088
 34830.8
 28511.7
 25204.3
 25977.7
 27607
 34615.2
 50156.1
 107750
 112704
 48079.7
 33410.9
 28015.8
 25775.3
 25309.3
 27593.3
 34164.2
 49528.2
 114364
 112743
 49490.3
 31646.7
 27673.8
 25143.8
 24247.8
 26884.9
 33838.6
 48712.9
 110985
 114749
 46606.5
 34656
 28745
 24223.1
 24475.2
 26665
 34697.4
 46987.9
 111303
 108835
 50057.2
 34104.9
 27853.4
 24406.2
 25903.4
 26102.8
 34329.1
 50053.8
 114866
 109992
 47778.7
 33825.2
 27281.9
 23969
 24554
 27752
 33667.8
 46703.4
 112158
 113476
 48838.2
 33063.1
 28147.4
 25767.5
 24977.5
 28783.7
 35770.1
 48162.5
 109064
 109818
 48275.1
 33233.4
 26753.6
 25094.3
 24578.3
 28121
 32178.2
 50471.7
 112015
 112045
 48270.6
 35097.7
 27125.7
 24330.5
 25132.2
 27883.8
 34831.4
 49784.2
 113791
 113346
 47370.8
 33105.7
 28999.5
 24411.5
 24410.2
 26885.1
 33052.2
 47178.1
 110500
 112435
 48493.3
 34199.5
 27609.7
 25031.1
 24951.9
 28078.9
 34173.4
 47286
 110355
 111491
 49018.8
 34561.6
 27876.1
 25547.9
 24583.6
 27899.5
 35588.5
 48776.5
 110738
 115561
 47377.2
 33784
 27459.8
 24784.7
 24454.4
 27210.7
 34515.8
 49863.6
 114642
 109848
 46636
 33343.2
 28541
 24283
 25219.6
 28328
 33708.5
 49421.9
 113452
 112798
 47703.8
 34366
 27628.6
 24904
 25818.2
 28335.5
 33037.6
 48196.4
 115175
 103647
 48691.6
 35046.4
 27792.6
 24141.8
 25196.6
 27452.6
 32278.8
 46993.3
 108840
 115695
 49894.7
 34534.9
 28418.5
 24262.9
 25208
 27549.8
 34508.4
 47161.4
 111365
 110323
 49157.5
 34326
 27539.4
 24579.1
 25270.4
 27564.8
 35133
 48206
 111884
 111412
 49988.9
 34320.4
 27455.5
 25434.3
 25158.5
 28184.7
 32569.9
 47263.6
 114741
 112567
 46231.6
 34356.9
 27016.5
 24795.7
 23882
 28067.7
 33374.7
 49916.4
 111232
 108616
 47394.1
 35605.8
 27615.2
 25973.3
 24219.1
 28031.4
 34614.6
 49829.5
 115867
 111846
 47053.9
 33830.3
 28328.7
 24582.8
 24843.2
 28142.5
 32637.9
 46887.7
 110319
 115393
 48038.3
 34088.7
 27522.7
 24376
 24649.3
 27919.3
 35157.5
 46015.6
 114712
 112639
 47846.3
 32047.6
 26948.3
 24267.4
 25178.9
 27864
 35680.6
 47153.6
 108226
 111434
 50203.4
 35908.7
 27713.7
 24159.5
 25888.4
 28180.6
 33242.4
 47199.7
 109377
 116120
 48469.6
 33802.2
 25949.1
 24213.5
 24727.9
 27473.9
 34470.2
 48806.8
 111536
 114874
 47548.9
 33700.9
 27661.3
 26161.1
 25178.4
 26821
 31401.3
 47711
 117092
 112954
 48923.9
 34617.4
 27988.1
 25454.5
 23972.1
 27054.2
 33861.6
 47768
 111268
 114922
 48383.5
 34952.3
 28731.9
 24430.1
 25486.6
 28297.1
 33333.7
 46996
 106545
 111269
 48165
 33290.3
 27962.8
 24890.1
 24044.8
 27910
 33003.5
 48166.7
 111867
 110968
 47238.3
 33121.9
 28152.6
 24978.2
 25557.6
 28071.1
 33013.1
 49742.3
 109275
 111564
 46283.5
 34582.1
 28455.7
 25129.2
 24872.5
 28338.7
 33805.1
 46953.1
 115718
 115153
 46532
 31975.5
 28747.3
 24029.1
 24926.5
 27446.2
 34416.3
 47501.6
 113901
 114280
 48985
 32801.4
 27690.8
 25704.8
 24782.6
 27804.7
 33792.8
 49207.1
 112798
 114023
 48205
 35418.7
 26687.5
 23649.9
 24594.6
 28830.5
 34230.7
 46260
 114702
 113745
 48577.8
 35967.5
 27304.5
 24501.7
 24269
 27354.4
 35358.1
 46254.6
 110662
 113470
 47882.5
 34360.9
 28397
 25741.4
 24313.4
 27266.3
 34344.3
 47684.7
 111461
 108418
 47794.4
 34728.9
 27778.1
 24500.6
 24059.7
 27807
 32515.5
 47885.3
 112750
 112136
 48708.8
 34157.6
 27921.7
 25805
 24682.1
 27835.1
 34305.8
 47023.8
 105426
 112165
 46938.2
 34286.9
 28553.8
 24780.5
 24453.9
 27597
 35024.3
 47441.1
 108700
 110829
 49227.7
 35198.1
 26688
 23683.1
 24592.6
 28857.9
 34314.4
 48452.1
 109182
 114304
 49132.1
 34219.8
 27510.2
 25648.4
 24592.9
 28555.8
 35019.3
 47612.2
 107293
 112910
 48812.6
 33675.7
 27699.6
 25265.6
 24773.1
 27606.5
 33874.8
 48731.5
 112576
 109990
 46385.9
 31850.4
 28997.1
 24596.1
 25397.8
 26495.7
 36401.4
 46952.8
 112689
 116613
 44629.6
 33632.1
 28735.8
 24456
 26546.2
 27199.2
 33777
 49277.8
 113517
 113377
 47925.2
 34604.6
 27759.7
 25574.9
 25156
 26983.9
 35454
 48276.7
 108488
 109522
 47565
 35088.2
 26697.6
 25266.1
 25436.5
 28917.4
 34630.7
 47461.9
 110833
 113798
 46353.6
 33160.4
 26580.2
 24620.5
 26199.5
 28158.2
 33391.5
 47418.5
 111442
 112787
 48414.2
 33359.6
 27824.6
 24037.3
 25180.8
 27968.6
 35248.1
 45794.2
 115113
 112421
 46833.6
 34089.1
 27187.5
 24706.7
 25982.3
 27027.9
 34787
 47607.2
 113158
 112896
 48644.7
 34739.2
 28266.2
 24740.3
 25396.9
 28368.1
 33047.9
 48266.6
 112323
 109986
 49748.6
 34044.4
 27655.6
 24975.2
 24903.2
 27936.2
 35014.1
 48921.4
 114794
 111098
 49166.2
 34551.4
 27664
 25650
 25897.6
 28471.7
 36369.5
 48561.1
 110401
 111356
 48560.6
 34964.3
 28388.7
 24457.3
 24408.5
 28628.2
 32328.4
 47738.6
 114643
 112394
 46518
 32778.9
 27535.8
 24801.5
 25322.3
 27479.9
 34571.9
 49186.7
 109996
 112054
 49580.3
 34058.6
 27059.8
 24728.1
 24645.3
 29048.1
 32433.1
 48161.9
 109558
 113807
 48626.5
 33732.4
 28323
 25295.8
 23746.4
 27426.4
 32298.9
 48906.8
 112559
 108451
 46677.1
 35795.9
 27898.7
 26062.9
 26229.9
 28690.8
 34210.9
 49255.5
 110006
 107506
 47653.8
 34058.3
 28072.3
 25482.1
 25098.8
 27168.3
 32700.1
 48842.1
 111771
 110047
 46781.9
 34736.9
 28413
 25099.1
 25674.9
 29430.2
 34146.8
 49031.9
 115094
 111233
 48149
 34846.3
 27380.8
 25007.9
 24684.1
 27357.8
 33796.5
 48880.3
 117464
 112316
 49894.2
 35410.5
 27621.3
 24259.4
 24162.7
 28001.6
 34417.6
 48337.8
 112094
 112957
 48252.1
 34928.7
 26375.7
 24864.1
 24742.9
 28991.9
 34236.7
 49484.6
 114880
 112208
 48372
 34035.6
 28394.7
 25284.4
 24348.3
 28216.4
 32889
 48662.9
 113222

Vol_HEAT_Q 1 1000 FLOAT 
 25.4442
 13.5217
 11.8047
 12.3485
 13.8611
 14.1671
 12.0687
 11.9477
 13.619
 24.7644
 31.339
 16.8193
 14.8874
 15.4883
 16.3161
 16.9111
 16.4441
 15.5699
 16.845
 31.1341
 40.3184
 20.9041
 18.8583
 19.2596
 21.5958
 21.1315
 19.5643
 18.66
 21.001
 39.3473
 47.273
 26.4554
 22.6503
 22.9504
 27.1222
 26.5869
 23.7642
 23.1186
 25.6788
 49.263
 63.8345
 33.5684
 28.9684
 30.5704
 34.1315
 33.2258
 30.539
 29.6817
 34.6482
 62.664
 62.2677
 33.5666
 30.7774
 27.8728
 35.2368
 33.1635
 29.8969
 29.6892
 33.6004
 59.8834
 48.4127
 25.5132
 23.229
 22.5086
 27.025
 26.4088
 25.0333
 24.1477
 27.0947
 50.8643
 39.3957
 21.1714
 19.4428
 18.584
 22.1921
 23.288
 19.3839
 18.4177
 21.798
 40.1503
 31.8589
 17.8818
 16.207
 14.755
 16.9316
 16.813
 14.8711
 14.9631
 16.9599
 32.4062
 24.8738
 13.3215
 11.8969
 12.0565
 13.662
 13.424
 12.6148
 11.8607
 13.7932
 26.1267
 31.2197
 16.3648
 15.2408
 14.9129
 16.6829
 17.1307
 15.5154
 15.4497
 16.7174
 31.5785
 38.1836
 21.9658
 19.1601
 19.5873
 20.5986
 21.3225
 20.1774
 19.0764
 21.0183
 41.2796
 50.4142
 26.4388
 23.6296
 23.5609
 26.4248
 26.7699
 24.6661
 23.2419
 27.6248
 49.471
 58.9985
 33.2991
 29.4313
 29.4004
 33.0625
 32.7455
 30.5834
 29.7727
 32.3415
 62.957
 78.3764
 40.8301
 35.9809
 35.5255
 41.93
 42.4915
 38.6134
 36.4072
 39.6167
 80.1789
 79.8674
 42.7639
 35.4191
 37.564
 43.9786
 42.5938
 36.5514
 37.6335
 40.06
 76.0492
 61.821
 33.9001
 29.5
 29.9608
 33.6482
 33.4589
 29.1239
 28.9958
 33.5607
 62.3808
 51.5913
 27.2077
 24.1759
 24.5082
 26.9417
 24.8041
 25.6828
 23.7615
 27.2888
 46.968
 38.4965
 21.6796
 19.2097
 19.0444
 21.9312
 21.8383
 19.0609
 18.3004
 20.599
 41.1326
 31.9756
 16.9876
 15.6219
 15.1594
 16.9134
 17.3338
 14.8455
 14.8793
 16.157
 32.3686
 39.5915
 21.7927
 18.5785
 19.2955
 21.5281
 21.2547
 19.1394
 19.0022
 21.4554
 41.0336
 49.2425
 24.9467
 24.0396
 23.38
 26.3249
 26.8257
 23.1707
 23.1811
 27.5141
 49.313
 61.4095
 33.5753
 29.8811
 29.3511
 33.453
 32.7916
 29.3061
 28.9757
 32.2205
 61.746
 76.4302
 42.6964
 37.4301
 38.4312
 41.107
 40.6093
 36.1287
 36.2263
 40.7968
 75.0855
 98.2394
 53.5982
 45.1035
 48.1511
 51.8822
 51.7742
 44.8909
 47.0027
 51.7328
 96.8389
 94.2547
 50.5435
 44.947
 46.6327
 54.7551
 53.2407
 45.4167
 46.0742
 51.2073
 95.3834
 76.1638
 40.6189
 38.2626
 37.5754
 43.1613
 43.3138
 38.6367
 38.0484
 42.9294
 79.4827
 61.3417
 32.5246
 28.3084
 30.8376
 34.6556
 32.5082
 30.6977
 28.903
 33.0928
 61.3924
 48.0765
 27.3695
 23.9714
 25.3847
 26.0796
 25.6876
 24.9599
 23.3986
 26.9809
 50.6492
 40.1602
 21.4805
 18.8533
 19.4026
 21.1588
 21.3342
 18.6456
 17.8147
 20.7015
 38.339
 50.1679
 25.9184
 22.9105
 24.9433
 26.4558
 26.2119
 22.999
 23.5894
 26.3171
 48.84
 64.0407
 33.8936
 30.959
 29.2779
 33.648
 33.1307
 29.5955
 28.8121
 32.5279
 62.652
 75.8193
 39.8156
 35.7297
 37.7498
 42.0344
 42.2967
 37.8414
 38.7568
 42.4207
 77.0618
 95.7857
 53.0797
 47.7774
 44.4898
 54.5143
 53.1045
 46.8601
 45.9477
 51.759
 94.6896
 121.342
 64.1774
 59.5248
 60.5811
 64.6029
 63.9229
 57.5656
 56.6271
 65.5468
 119.06
 120.561
 64.7332
 58.6477
 55.6136
 61.5891
 65.0071
 57.9849
 59.1161
 65.0842
 119.713
 95.3294
 52.9294
 46.9457
 48.0358
 53.0795
 54.7083
 46.5116
 46.6551
 54.0811
 92.9455
 77.775
 41.4738
 36.0256
 37.7603
 43.4255
 42.6404
 37.1908
 36.8377
 42.7232
 78.9206
 62.2418
 34.1524
 27.2986
 29.8394
 33.8893
 32.6817
 28.9888
 29.1893
 33.616
 61.271
 50.6794
 25.7299
 23.9156
 24.7956
 26.1187
 26.3905
 23.0014
 23.9441
 25.9405
 49.1572
 60.084
 34.5436
 29.4191
 30.0331
 32.8952
 34.9131
 28.1455
 29.6124
 34.5413
 63.4138
 75.9034
 41.2142
 36.4722
 36.771
 40.3824
 41.3679
 37.4047
 36.3025
 40.2866
 77.3985
 97.8848
 52.6601
 44.5631
 47.422
 54.2656
 52.6018
 48.494
 48.2117
 51.9315
 94.0788
 118.412
 65.0661
 55.9908
 56.3423
 66.0599
 64.7014
 59.2218
 54.213
 68.0268
 120.781
 151.017
 81.3251
 73.9146
 71.4073
 80.0612
 82.6993
 73.4031
 73.3537
 83.8752
 153.37
 152.77
 79.8091
 69.7195
 76.34
 80.3279
 80.3235
 70.7741
 69.6069
 79.4844
 148.934
 121.234
 65.3602
 57.6184
 58.1451
 65.8933
 65.685
 59.1333
 57.5745
 63.7331
 118.991
 96.173
 52.8548
 46.5828
 46.9649
 53.8032
 51.7724
 47.0044
 47.9669
 52.5935
 95.5234
 79.7467
 40.8678
 36.4278
 37.0109
 41.7566
 41.2001
 36.6751
 37.2169
 43.0126
 79.1125
 60.6434
 32.1827
 28.762
 30.7745
 32.7291
 33.9915
 30.5449
 29.0771
 34.1052
 62.6332
 62.2722
 32.9196
 29.6443
 29.7907
 33.5662
 34.7983
 30.5529
 28.4984
 33.2596
 63.5841
 71.5251
 42.0016
 37.789
 37.4594
 40.6734
 42.4506
 37.0012
 34.8048
 40.5367
 75.109
 99.799
 53.7992
 46.5469
 47.8788
 51.097
 53.0872
 46.4152
 46.5111
 50.852
 96.0638
 118.956
 66.2554
 57.8317
 57.997
 64.7036
 66.5233
 58.0507
 59.1912
 64.9729
 120.64
 150.163
 84.2201
 72.2777
 72.2755
 83.6934
 82.786
 74.1951
 68.5912
 79.6285
 154.65
 151.72
 77.8899
 72.3545
 71.1197
 81.5922
 78.5857
 73.8872
 70.2862
 84.0979
 149.92
 117.116
 63.8787
 59.9878
 58.1567
 68.3738
 63.7559
 59.0332
 58.3178
 67.1611
 124.934
 96.4793
 50.7361
 45.5971
 47.7275
 51.7706
 52.3191
 47.4138
 43.9899
 50.557
 95.1618
 79.6307
 41.4381
 36.7563
 37.0956
 41.068
 41.5285
 37.6302
 37.9087
 39.6933
 79.1609
 62.1844
 33.018
 27.6444
 29.0571
 32.7081
 33.9366
 30.0446
 30.7783
 32.5399
 59.7479
 49.2152
 27.7156
 24.78
 23.906
 26.0502
 27.9143
 24.3087
 22.9401
 26.0574
 48.3069
 64.1062
 33.4481
 29.1579
 27.9798
 32.6354
 33.3288
 29.6239
 29.7342
 33.6808
 61.5752
 79.2724
 41.0159
 36.3382
 37.2825
 44.0756
 42.4199
 36.1499
 33.8586
 41.1557
 80.8031
 97.4345
 52.7525
 46.658
 47.1536
 53.6064
 50.4846
 45.5803
 45.6394
 51.5061
 95.9806
 123.916
 65.2123
 58.8867
 60.5086
 64.3113
 67.0924
 59.5928
 56.1598
 63.3421
 114.883
 119.976
 64.9177
 56.0867
 58.8887
 65.5222
 63.297
 58.7777
 55.6034
 64.92
 120.621
 95.7213
 50.935
 44.6424
 47.4307
 52.6033
 53.8235
 47.2936
 44.4957
 53.635
 94.2611
 76.9883
 39.9244
 37.2883
 38.3532
 42.3371
 41.9046
 38.1954
 36.4506
 40.502
 79.855
 63.5722
 32.1109
 27.5822
 30.997
 32.3869
 33.5965
 29.594
 29.6876
 32.7801
 62.8809
 50.4721
 27.043
 22.6357
 23.8862
 27.7163
 26.722
 23.9844
 23.3199
 27.1656
 49.8175
 40.2869
 21.2899
 19.5535
 18.4166
 20.4005
 21.2155
 19.8955
 18.8976
 20.4309
 40.527
 50.2357
 26.8182
 24.8206
 23.553
 26.4191
 26.1682
 23.5961
 24.4
 25.5357
 48.8743
 62.6433
 33.0429
 29.6399
 30.6192
 34.6947
 32.7701
 29.4
 29.6256
 32.9064
 61.5337
 74.8177
 41.2277
 37.4466
 37.4398
 41.278
 40.5352
 37.4788
 35.06
 41.3061
 77.8068
 96.7288
 52.5206
 46.0383
 47.0418
 54.3446
 51.9796
 46.8958
 46.238
 50.7037
 90.9407
 96.7539
 50.6114
 46.2125
 48.1068
 52.187
 51.4991
 46.4947
 47.2064
 51.1537
 93.7654
 76.4811
 42.4641
 37.9526
 35.9707
 39.9007
 41.433
 38.8953
 36.9997
 41.795
 75.3449
 63.1034
 33.9053
 29.5182
 29.663
 34.5694
 33.1468
 30.7905
 30.2078
 32.8564
 59.2331
 49.8673
 26.9478
 23.2391
 23.8938
 27.2428
 26.7117
 23.8135
 23.3764
 26.9031
 49.7197
 38.8621
 20.4865
 17.5836
 20.0104
 21.2167
 21.9083
 18.2842
 20.096
 20.7369
 39.8155
 32.9615
 15.7687
 14.8537
 15.8641
 16.8767
 18.3191
 15.0158
 14.9177
 17.411
 32.0866
 40.0587
 21.1663
 19.104
 19.1565
 22.061
 21.6997
 18.6212
 19.573
 21.3216
 38.3315
 48.3709
 26.2591
 24.2138
 23.0295
 27.2433
 27.4271
 24.9443
 23.8981
 26.2022
 48.9498
 62.8241
 31.9879
 28.6043
 28.6603
 33.184
 35.3122
 30.3617
 28.8036
 32.7227
 61.5234
 77.8325
 41.7623
 35.9702
 37.5026
 40.4975
 42.4241
 37.6967
 38.0065
 39.5023
 79.4378
 77.5799
 40.3989
 36.7567
 36.6438
 41.6252
 43.7743
 36.4287
 37.5093
 41.0662
 78.0887
 62.3261
 33.5689
 29.9662
 30.4782
 33.3454
 34.2304
 30.588
 28.5073
 33.308
 62.0097
 48.5756
 27.4646
 23.4935
 23.8558
 26.9296
 26.852
 24.0979
 24.1626
 27.0079
 50.6991
 39.2535
 21.7144
 19.0747
 19.0905
 22.1258
 22.3394
 19.6478
 20.0784
 21.4472
 39.0071
 31.4757
 17.1576
 15.4421
 15.6725
 16.8776
 16.8439
 15.8047
 14.278
 16.8672
 32.4049
 25.4153
 13.1487
 11.5815
 12.1613
 13.6921
 13.9796
 12.1366
 12.215
 13.903
 24.8731
 31.6731
 17.5178
 15.0421
 14.9388
 17.0645
 17.0073
 16.0365
 14.3242
 17.0167
 30.9675
 40.2107
 21.4761
 18.6225
 19.5452
 21.8203
 20.4838
 18.9265
 17.8312
 21.5998
 39.7697
 47.898
 25.7689
 24.7022
 24.0655
 28.1025
 28.2825
 24.7488
 23.6084
 27.1923
 48.5844
 59.3505
 32.8851
 29.3789
 30.2691
 34.3453
 33.8287
 29.2944
 28.2072
 33.7051
 61.7051
 60.7534
 32.2834
 29.9642
 30.6365
 33.8291
 34.6051
 31.7333
 29.4552
 33.8361
 63.5397
 49.1265
 26.5815
 24.0468
 23.6188
 26.965
 26.6158
 23.5989
 23.3224
 26.9852
 51.8783
 39.684
 22.036
 19.549
 19.061
 20.9263
 20.8429
 19.3234
 19.0008
 21.3486
 39.6054
 31.9283
 17.0486
 15.4264
 14.5612
 17.1583
 17.0747
 16.0055
 15.1207
 17.484
 32.4717
 25.3732
 13.6727
 12.0256
 12.5406
 13.9587
 13.4419
 12.4619
 11.6204
 13.755
 25.6025
