# vtk DataFile Version 2.0
Three-D cube surface heat flux and Q display
ASCII
DATASET UNSTRUCTURED_GRID

POINTS 2402 FLOAT 
 -2.5 -2.5 -2.5
 -2.35129 -2.5 -2.5
 -2.18607 -2.5 -2.5
 -2.00248 -2.5 -2.5
 -1.79849 -2.5 -2.5
 -1.57184 -2.5 -2.5
 -1.32001 -2.5 -2.5
 -1.04019 -2.5 -2.5
 -0.729286 -2.5 -2.5
 -0.383835 -2.5 -2.5
 0 -2.5 -2.5
 0.383835 -2.5 -2.5
 0.729286 -2.5 -2.5
 1.04019 -2.5 -2.5
 1.32001 -2.5 -2.5
 1.57184 -2.5 -2.5
 1.79849 -2.5 -2.5
 2.00248 -2.5 -2.5
 2.18607 -2.5 -2.5
 2.35129 -2.5 -2.5
 2.5 -2.5 -2.5
 -2.5 -2.25 -2.5
 -2.35129 -2.25 -2.5
 -2.18607 -2.25 -2.5
 -2.00248 -2.25 -2.5
 -1.79849 -2.25 -2.5
 -1.57184 -2.25 -2.5
 -1.32001 -2.25 -2.5
 -1.04019 -2.25 -2.5
 -0.729286 -2.25 -2.5
 -0.383835 -2.25 -2.5
 0 -2.25 -2.5
 0.383835 -2.25 -2.5
 0.729286 -2.25 -2.5
 1.04019 -2.25 -2.5
 1.32001 -2.25 -2.5
 1.57184 -2.25 -2.5
 1.79849 -2.25 -2.5
 2.00248 -2.25 -2.5
 2.18607 -2.25 -2.5
 2.35129 -2.25 -2.5
 2.5 -2.25 -2.5
 -2.5 -2 -2.5
 -2.35129 -2 -2.5
 -2.18607 -2 -2.5
 -2.00248 -2 -2.5
 -1.79849 -2 -2.5
 -1.57184 -2 -2.5
 -1.32001 -2 -2.5
 -1.04019 -2 -2.5
 -0.729286 -2 -2.5
 -0.383835 -2 -2.5
 0 -2 -2.5
 0.383835 -2 -2.5
 0.729286 -2 -2.5
 1.04019 -2 -2.5
 1.32001 -2 -2.5
 1.57184 -2 -2.5
 1.79849 -2 -2.5
 2.00248 -2 -2.5
 2.18607 -2 -2.5
 2.35129 -2 -2.5
 2.5 -2 -2.5
 -2.5 -1.75 -2.5
 -2.35129 -1.75 -2.5
 -2.18607 -1.75 -2.5
 -2.00248 -1.75 -2.5
 -1.79849 -1.75 -2.5
 -1.57184 -1.75 -2.5
 -1.32001 -1.75 -2.5
 -1.04019 -1.75 -2.5
 -0.729286 -1.75 -2.5
 -0.383835 -1.75 -2.5
 0 -1.75 -2.5
 0.383835 -1.75 -2.5
 0.729286 -1.75 -2.5
 1.04019 -1.75 -2.5
 1.32001 -1.75 -2.5
 1.57184 -1.75 -2.5
 1.79849 -1.75 -2.5
 2.00248 -1.75 -2.5
 2.18607 -1.75 -2.5
 2.35129 -1.75 -2.5
 2.5 -1.75 -2.5
 -2.5 -1.5 -2.5
 -2.35129 -1.5 -2.5
 -2.18607 -1.5 -2.5
 -2.00248 -1.5 -2.5
 -1.79849 -1.5 -2.5
 -1.57184 -1.5 -2.5
 -1.32001 -1.5 -2.5
 -1.04019 -1.5 -2.5
 -0.729286 -1.5 -2.5
 -0.383835 -1.5 -2.5
 0 -1.5 -2.5
 0.383835 -1.5 -2.5
 0.729286 -1.5 -2.5
 1.04019 -1.5 -2.5
 1.32001 -1.5 -2.5
 1.57184 -1.5 -2.5
 1.79849 -1.5 -2.5
 2.00248 -1.5 -2.5
 2.18607 -1.5 -2.5
 2.35129 -1.5 -2.5
 2.5 -1.5 -2.5
 -2.5 -1.25 -2.5
 -2.35129 -1.25 -2.5
 -2.18607 -1.25 -2.5
 -2.00248 -1.25 -2.5
 -1.79849 -1.25 -2.5
 -1.57184 -1.25 -2.5
 -1.32001 -1.25 -2.5
 -1.04019 -1.25 -2.5
 -0.729286 -1.25 -2.5
 -0.383835 -1.25 -2.5
 0 -1.25 -2.5
 0.383835 -1.25 -2.5
 0.729286 -1.25 -2.5
 1.04019 -1.25 -2.5
 1.32001 -1.25 -2.5
 1.57184 -1.25 -2.5
 1.79849 -1.25 -2.5
 2.00248 -1.25 -2.5
 2.18607 -1.25 -2.5
 2.35129 -1.25 -2.5
 2.5 -1.25 -2.5
 -2.5 -1 -2.5
 -2.35129 -1 -2.5
 -2.18607 -1 -2.5
 -2.00248 -1 -2.5
 -1.79849 -1 -2.5
 -1.57184 -1 -2.5
 -1.32001 -1 -2.5
 -1.04019 -1 -2.5
 -0.729286 -1 -2.5
 -0.383835 -1 -2.5
 0 -1 -2.5
 0.383835 -1 -2.5
 0.729286 -1 -2.5
 1.04019 -1 -2.5
 1.32001 -1 -2.5
 1.57184 -1 -2.5
 1.79849 -1 -2.5
 2.00248 -1 -2.5
 2.18607 -1 -2.5
 2.35129 -1 -2.5
 2.5 -1 -2.5
 -2.5 -0.75 -2.5
 -2.35129 -0.75 -2.5
 -2.18607 -0.75 -2.5
 -2.00248 -0.75 -2.5
 -1.79849 -0.75 -2.5
 -1.57184 -0.75 -2.5
 -1.32001 -0.75 -2.5
 -1.04019 -0.75 -2.5
 -0.729286 -0.75 -2.5
 -0.383835 -0.75 -2.5
 0 -0.75 -2.5
 0.383835 -0.75 -2.5
 0.729286 -0.75 -2.5
 1.04019 -0.75 -2.5
 1.32001 -0.75 -2.5
 1.57184 -0.75 -2.5
 1.79849 -0.75 -2.5
 2.00248 -0.75 -2.5
 2.18607 -0.75 -2.5
 2.35129 -0.75 -2.5
 2.5 -0.75 -2.5
 -2.5 -0.5 -2.5
 -2.35129 -0.5 -2.5
 -2.18607 -0.5 -2.5
 -2.00248 -0.5 -2.5
 -1.79849 -0.5 -2.5
 -1.57184 -0.5 -2.5
 -1.32001 -0.5 -2.5
 -1.04019 -0.5 -2.5
 -0.729286 -0.5 -2.5
 -0.383835 -0.5 -2.5
 0 -0.5 -2.5
 0.383835 -0.5 -2.5
 0.729286 -0.5 -2.5
 1.04019 -0.5 -2.5
 1.32001 -0.5 -2.5
 1.57184 -0.5 -2.5
 1.79849 -0.5 -2.5
 2.00248 -0.5 -2.5
 2.18607 -0.5 -2.5
 2.35129 -0.5 -2.5
 2.5 -0.5 -2.5
 -2.5 -0.25 -2.5
 -2.35129 -0.25 -2.5
 -2.18607 -0.25 -2.5
 -2.00248 -0.25 -2.5
 -1.79849 -0.25 -2.5
 -1.57184 -0.25 -2.5
 -1.32001 -0.25 -2.5
 -1.04019 -0.25 -2.5
 -0.729286 -0.25 -2.5
 -0.383835 -0.25 -2.5
 0 -0.25 -2.5
 0.383835 -0.25 -2.5
 0.729286 -0.25 -2.5
 1.04019 -0.25 -2.5
 1.32001 -0.25 -2.5
 1.57184 -0.25 -2.5
 1.79849 -0.25 -2.5
 2.00248 -0.25 -2.5
 2.18607 -0.25 -2.5
 2.35129 -0.25 -2.5
 2.5 -0.25 -2.5
 -2.5 0 -2.5
 -2.35129 0 -2.5
 -2.18607 0 -2.5
 -2.00248 0 -2.5
 -1.79849 0 -2.5
 -1.57184 0 -2.5
 -1.32001 0 -2.5
 -1.04019 0 -2.5
 -0.729286 0 -2.5
 -0.383835 0 -2.5
 0 0 -2.5
 0.383835 0 -2.5
 0.729286 0 -2.5
 1.04019 0 -2.5
 1.32001 0 -2.5
 1.57184 0 -2.5
 1.79849 0 -2.5
 2.00248 0 -2.5
 2.18607 0 -2.5
 2.35129 0 -2.5
 2.5 0 -2.5
 -2.5 0.25 -2.5
 -2.35129 0.25 -2.5
 -2.18607 0.25 -2.5
 -2.00248 0.25 -2.5
 -1.79849 0.25 -2.5
 -1.57184 0.25 -2.5
 -1.32001 0.25 -2.5
 -1.04019 0.25 -2.5
 -0.729286 0.25 -2.5
 -0.383835 0.25 -2.5
 0 0.25 -2.5
 0.383835 0.25 -2.5
 0.729286 0.25 -2.5
 1.04019 0.25 -2.5
 1.32001 0.25 -2.5
 1.57184 0.25 -2.5
 1.79849 0.25 -2.5
 2.00248 0.25 -2.5
 2.18607 0.25 -2.5
 2.35129 0.25 -2.5
 2.5 0.25 -2.5
 -2.5 0.5 -2.5
 -2.35129 0.5 -2.5
 -2.18607 0.5 -2.5
 -2.00248 0.5 -2.5
 -1.79849 0.5 -2.5
 -1.57184 0.5 -2.5
 -1.32001 0.5 -2.5
 -1.04019 0.5 -2.5
 -0.729286 0.5 -2.5
 -0.383835 0.5 -2.5
 0 0.5 -2.5
 0.383835 0.5 -2.5
 0.729286 0.5 -2.5
 1.04019 0.5 -2.5
 1.32001 0.5 -2.5
 1.57184 0.5 -2.5
 1.79849 0.5 -2.5
 2.00248 0.5 -2.5
 2.18607 0.5 -2.5
 2.35129 0.5 -2.5
 2.5 0.5 -2.5
 -2.5 0.75 -2.5
 -2.35129 0.75 -2.5
 -2.18607 0.75 -2.5
 -2.00248 0.75 -2.5
 -1.79849 0.75 -2.5
 -1.57184 0.75 -2.5
 -1.32001 0.75 -2.5
 -1.04019 0.75 -2.5
 -0.729286 0.75 -2.5
 -0.383835 0.75 -2.5
 0 0.75 -2.5
 0.383835 0.75 -2.5
 0.729286 0.75 -2.5
 1.04019 0.75 -2.5
 1.32001 0.75 -2.5
 1.57184 0.75 -2.5
 1.79849 0.75 -2.5
 2.00248 0.75 -2.5
 2.18607 0.75 -2.5
 2.35129 0.75 -2.5
 2.5 0.75 -2.5
 -2.5 1 -2.5
 -2.35129 1 -2.5
 -2.18607 1 -2.5
 -2.00248 1 -2.5
 -1.79849 1 -2.5
 -1.57184 1 -2.5
 -1.32001 1 -2.5
 -1.04019 1 -2.5
 -0.729286 1 -2.5
 -0.383835 1 -2.5
 0 1 -2.5
 0.383835 1 -2.5
 0.729286 1 -2.5
 1.04019 1 -2.5
 1.32001 1 -2.5
 1.57184 1 -2.5
 1.79849 1 -2.5
 2.00248 1 -2.5
 2.18607 1 -2.5
 2.35129 1 -2.5
 2.5 1 -2.5
 -2.5 1.25 -2.5
 -2.35129 1.25 -2.5
 -2.18607 1.25 -2.5
 -2.00248 1.25 -2.5
 -1.79849 1.25 -2.5
 -1.57184 1.25 -2.5
 -1.32001 1.25 -2.5
 -1.04019 1.25 -2.5
 -0.729286 1.25 -2.5
 -0.383835 1.25 -2.5
 0 1.25 -2.5
 0.383835 1.25 -2.5
 0.729286 1.25 -2.5
 1.04019 1.25 -2.5
 1.32001 1.25 -2.5
 1.57184 1.25 -2.5
 1.79849 1.25 -2.5
 2.00248 1.25 -2.5
 2.18607 1.25 -2.5
 2.35129 1.25 -2.5
 2.5 1.25 -2.5
 -2.5 1.5 -2.5
 -2.35129 1.5 -2.5
 -2.18607 1.5 -2.5
 -2.00248 1.5 -2.5
 -1.79849 1.5 -2.5
 -1.57184 1.5 -2.5
 -1.32001 1.5 -2.5
 -1.04019 1.5 -2.5
 -0.729286 1.5 -2.5
 -0.383835 1.5 -2.5
 0 1.5 -2.5
 0.383835 1.5 -2.5
 0.729286 1.5 -2.5
 1.04019 1.5 -2.5
 1.32001 1.5 -2.5
 1.57184 1.5 -2.5
 1.79849 1.5 -2.5
 2.00248 1.5 -2.5
 2.18607 1.5 -2.5
 2.35129 1.5 -2.5
 2.5 1.5 -2.5
 -2.5 1.75 -2.5
 -2.35129 1.75 -2.5
 -2.18607 1.75 -2.5
 -2.00248 1.75 -2.5
 -1.79849 1.75 -2.5
 -1.57184 1.75 -2.5
 -1.32001 1.75 -2.5
 -1.04019 1.75 -2.5
 -0.729286 1.75 -2.5
 -0.383835 1.75 -2.5
 0 1.75 -2.5
 0.383835 1.75 -2.5
 0.729286 1.75 -2.5
 1.04019 1.75 -2.5
 1.32001 1.75 -2.5
 1.57184 1.75 -2.5
 1.79849 1.75 -2.5
 2.00248 1.75 -2.5
 2.18607 1.75 -2.5
 2.35129 1.75 -2.5
 2.5 1.75 -2.5
 -2.5 2 -2.5
 -2.35129 2 -2.5
 -2.18607 2 -2.5
 -2.00248 2 -2.5
 -1.79849 2 -2.5
 -1.57184 2 -2.5
 -1.32001 2 -2.5
 -1.04019 2 -2.5
 -0.729286 2 -2.5
 -0.383835 2 -2.5
 0 2 -2.5
 0.383835 2 -2.5
 0.729286 2 -2.5
 1.04019 2 -2.5
 1.32001 2 -2.5
 1.57184 2 -2.5
 1.79849 2 -2.5
 2.00248 2 -2.5
 2.18607 2 -2.5
 2.35129 2 -2.5
 2.5 2 -2.5
 -2.5 2.25 -2.5
 -2.35129 2.25 -2.5
 -2.18607 2.25 -2.5
 -2.00248 2.25 -2.5
 -1.79849 2.25 -2.5
 -1.57184 2.25 -2.5
 -1.32001 2.25 -2.5
 -1.04019 2.25 -2.5
 -0.729286 2.25 -2.5
 -0.383835 2.25 -2.5
 0 2.25 -2.5
 0.383835 2.25 -2.5
 0.729286 2.25 -2.5
 1.04019 2.25 -2.5
 1.32001 2.25 -2.5
 1.57184 2.25 -2.5
 1.79849 2.25 -2.5
 2.00248 2.25 -2.5
 2.18607 2.25 -2.5
 2.35129 2.25 -2.5
 2.5 2.25 -2.5
 -2.5 2.5 -2.5
 -2.35129 2.5 -2.5
 -2.18607 2.5 -2.5
 -2.00248 2.5 -2.5
 -1.79849 2.5 -2.5
 -1.57184 2.5 -2.5
 -1.32001 2.5 -2.5
 -1.04019 2.5 -2.5
 -0.729286 2.5 -2.5
 -0.383835 2.5 -2.5
 0 2.5 -2.5
 0.383835 2.5 -2.5
 0.729286 2.5 -2.5
 1.04019 2.5 -2.5
 1.32001 2.5 -2.5
 1.57184 2.5 -2.5
 1.79849 2.5 -2.5
 2.00248 2.5 -2.5
 2.18607 2.5 -2.5
 2.35129 2.5 -2.5
 2.5 2.5 -2.5
 -2.5 -2.5 2.5
 -2.35129 -2.5 2.5
 -2.18607 -2.5 2.5
 -2.00248 -2.5 2.5
 -1.79849 -2.5 2.5
 -1.57184 -2.5 2.5
 -1.32001 -2.5 2.5
 -1.04019 -2.5 2.5
 -0.729286 -2.5 2.5
 -0.383835 -2.5 2.5
 0 -2.5 2.5
 0.383835 -2.5 2.5
 0.729286 -2.5 2.5
 1.04019 -2.5 2.5
 1.32001 -2.5 2.5
 1.57184 -2.5 2.5
 1.79849 -2.5 2.5
 2.00248 -2.5 2.5
 2.18607 -2.5 2.5
 2.35129 -2.5 2.5
 2.5 -2.5 2.5
 -2.5 -2.25 2.5
 -2.35129 -2.25 2.5
 -2.18607 -2.25 2.5
 -2.00248 -2.25 2.5
 -1.79849 -2.25 2.5
 -1.57184 -2.25 2.5
 -1.32001 -2.25 2.5
 -1.04019 -2.25 2.5
 -0.729286 -2.25 2.5
 -0.383835 -2.25 2.5
 0 -2.25 2.5
 0.383835 -2.25 2.5
 0.729286 -2.25 2.5
 1.04019 -2.25 2.5
 1.32001 -2.25 2.5
 1.57184 -2.25 2.5
 1.79849 -2.25 2.5
 2.00248 -2.25 2.5
 2.18607 -2.25 2.5
 2.35129 -2.25 2.5
 2.5 -2.25 2.5
 -2.5 -2 2.5
 -2.35129 -2 2.5
 -2.18607 -2 2.5
 -2.00248 -2 2.5
 -1.79849 -2 2.5
 -1.57184 -2 2.5
 -1.32001 -2 2.5
 -1.04019 -2 2.5
 -0.729286 -2 2.5
 -0.383835 -2 2.5
 0 -2 2.5
 0.383835 -2 2.5
 0.729286 -2 2.5
 1.04019 -2 2.5
 1.32001 -2 2.5
 1.57184 -2 2.5
 1.79849 -2 2.5
 2.00248 -2 2.5
 2.18607 -2 2.5
 2.35129 -2 2.5
 2.5 -2 2.5
 -2.5 -1.75 2.5
 -2.35129 -1.75 2.5
 -2.18607 -1.75 2.5
 -2.00248 -1.75 2.5
 -1.79849 -1.75 2.5
 -1.57184 -1.75 2.5
 -1.32001 -1.75 2.5
 -1.04019 -1.75 2.5
 -0.729286 -1.75 2.5
 -0.383835 -1.75 2.5
 0 -1.75 2.5
 0.383835 -1.75 2.5
 0.729286 -1.75 2.5
 1.04019 -1.75 2.5
 1.32001 -1.75 2.5
 1.57184 -1.75 2.5
 1.79849 -1.75 2.5
 2.00248 -1.75 2.5
 2.18607 -1.75 2.5
 2.35129 -1.75 2.5
 2.5 -1.75 2.5
 -2.5 -1.5 2.5
 -2.35129 -1.5 2.5
 -2.18607 -1.5 2.5
 -2.00248 -1.5 2.5
 -1.79849 -1.5 2.5
 -1.57184 -1.5 2.5
 -1.32001 -1.5 2.5
 -1.04019 -1.5 2.5
 -0.729286 -1.5 2.5
 -0.383835 -1.5 2.5
 0 -1.5 2.5
[...]
CELL_DATA 2400
FIELD DOMAIN 2
SurfaceElement_HEAT_FLUX_q 1 2400 FLOAT
 0
 0
 0
 0
 0
 0
 0
 0
 0
 0
 0
 0
 0
 0
 0
 0
 0
 0
 0
 0
 0
 0
 0
 0
 0
 0
 0
 0
 0
 0
 0
 0
 0
 0
 0
 0
 0
 0
 0
 0
 0
 0
 0
 0
 0
 0
 0
 0
 0
 0
 0
 0
 0
 0
 0
 0
 0
 0
 0
 0
 0
 0
 0
 0
 0
 0
 0
 0
 0
 0
 0
 0
 0
 0
 0
 0
 0
 0
 0
 0
 0
 0
 0
 0
 0
 0
 0
 0
 0
 0
 0
 0
 0
 0
 0
 0
 0
 0
 0
 0
 0
 0
 0
 0
 0
 0
 0
 0
 0
 0
 0
 0
 0
 0
 0
 0
 0
 0
 0
 0
 0
 0
 0
 0
 0
 0
 0
 0
 0
 0
 0
 0
 0
 0
 0
 0
 0
 0
 0
 0
 0
 0
 0
 0
 0
 0
 0
 0
 0
 0
 0
 0
 0
 0
 0
 0
 0
 0
 0
 0
 0
 0
 0
 0
 0
 0
 0
 0
 0
 0
 0
 0
 0
 0
 0
 0
 0
 0
 0
 0
 0
 0
 0
 0
 0
 0
 0
 0
 0
 0
 0
 0
 0
 0
 0
 0
 0
 0
 0
 0
 0
 0
 0
 0
 0
 0
 0
 0
 0
 0
 0
 0
 0
 0
 0
 0
 0
 0
 0
 0
 0
 0
 0
 0
 0
 0
 0
 0
 0
 0
 0
 0
 0
 0
 0
 0
 0
 0
 0
 0
 0
 0
 0
 0
 0
 0
 0
 0
 0
 0
 0
 0
 0
 0
 0
 0
 0
 0
 0
 0
 0
 0
 0
 0
 0
 0
 0
 0
 0
 0
 0
 0
 0
 0
 0
 0
 0
 0
 0
 0
 0
 0
 0
 0
 0
 0
 0
 0
 0
 0
 0
 0
 0
 0
 0
 0
 0
 0
 0
 0
 0
 0
 0
 0
 0
 0
 0
 0
 0
 0
 0
 0
 0
 0
 0
 0
 0
 0
 0
 0
 0
 0
 0
 0
 0
 0
 0
 0
 0
 0
 0
 0
 0
 0
 0
 0
 0
 0
 0
 0
 0
 0
 0
 0
 0
 0
 0
 0
 0
 0
 0
 0
 0
 0
 0
 0
 0
 0
 0
 0
 0
 0
 0
 0
 0
 0
 0
 0
 0
 0
 0
 0
 0
 0
 0
 0
 0
 0
 0
 0
 0
 0
 0
 0
 0
 0
 0
 0
 0
 0
 0
 0
 0
 0
 0
 0
 0
 0
 0
 0
 0
 0
 0
 0
 0
 0
 0
 0
 0
 0
 0
 0
 0
 0
 0
 0
 0
 0
 0
 0
 0
 0
 0
 0
 0
 0
 0
 0
 0
 0
 0
 0
 0
 0
 0
 0
 0
 0
 0
 0
 0
 0
 0
 0
 0
 0
 0
 0
 0
 0
 0
 0
 0
 0
 0
 0
 0
 0
 0
 0
 0
 0
 0
 0
 0
 0
 0
 0
 0
 0
 0
 0
 0
 0
 0
 0
 0
 0
 0
 0
 0
 0
 0
 0
 0
 0
 0
 0
 0
 0
 0
 0
 0
 0
 0
 0
 0
 0
 0
 0
 0
 0
 0
 0
 0
 0
 0
 0
 0
 0
 0
 0
 0
 0
 0
 0
 0
 0
 0
 0
 0
 0
 0
 0
 0
 0
 0
 0
 0
 0
 0
 0
 0
 0
 0
 0
 0
 0
 0
 0
 0
 0
 0
 0
 0
 0
 0
 0
 0
 0
 0
 0
 0
 0
 0
 0
 0
 0
 0
 0
 0
 0
 0
 0
 0
 0
 0
 0
 0
 0
 0
 0
 0
 0
 0
 0
 0
 0
 0
 0
 0
 0
 0
 0
 0
 0
 0
 0
 0
 0
 0
 0
 0
 0
 0
 0
 0
 0
 0
 0
 0
 0
 0
 0
 0
 0
 0
 0
 0
 0
 0
 0
 0
 0
 0
 0
 0
 0
 0
 0
 0
 0
 0
 0
 0
 0
 0
 0
 0
 0
 0
 0
 0
 0
 0
 0
 0
 0
 0
 0
 0
 0
 0
 0
 0
 0
 0
 0
 0
 0
 0
 0
 0
 0
 0
 0
 0
 0
 0
 0
 0
 0
 0
 0
 0
 0
 0
 0
 0
 0
 0
 0
 0
 0
 0
 0
 0
 0
 0
 0
 0
 0
 0
 0
 0
 0
 0
 0
 0
 0
 0
 0
 0
 0
 0
 0
 0
 0
 0
 0
 0
 0
 0
 0
 0
 0
 0
 0
 0
 0
 0
 0
 0
 0
 0
 0
 0
 0
 0
 0
 0
 0
 0
 0
 0
 0
 0
 0
 0
 0
 0
 0
 0
 0
 0
 0
 0
 0
 0
 0
 0
 0
 0
 0
 0
 0
 0
 0
 0
 0
 0
 0
 0
 0
 0
 0
 0
 0
 0
 0
 0
 0
 0
 0
 0
 0
 0
 0
 0
 0
 0
 0
 0
 0
 0
 0
 0
 0
 0
 0
 0
 0
 0
 0
 0
 0
 0
 0
 0
 0
 0
 0
 0
 0
 0
 0
 0
 0
 0
 0
 0
 0
 0
 0
 0
 0
 0
 0
 0
 0
 0
 0
 0
 0
 0
 0
 0
 0
 0
 0
 0
 0
 0
 0
 0
 0
 0
 0
 0
 0
 0
 0
 0
 0
 0
 0
 0
 0
 0
 0
 0
 0
 0
 0
 0
 0
 0
 0
 0
 0
 0
 0
 0
 0
 0
 0
 0
 0
 0
 0
 0
 0
 0
 0
 0
 0
 0
 0
 0
 0
 0
 0
 0
 0
 0
 0
 0
 0
 0
 0
 0
 0
 0
 0
 0
 0
 0
 0
 0
 0
 0
 0
 0
 0
 0
 0
 0
 0
 0
 0
 0
 0
 0
 0
 0
 0
 0
 0
 0
 0
 0
 0
 0
 0
 0
 0
 0
 0
 0
 0
 0
 0
 0
 0
 0
 0
 0
 0
 0
 0
 0
 0
 0
 0
 0
 0
 0
 0
 0
 0
 0
 0
 0
 0
 0
 0
 0
 0
 0
 0
 0
 0
 0
 0
 0
 0
 0
 0
 0
 0
 0
 0
 0
 0
 0
 0
 0
 0
 0
 0
 0
 0
 0
 0
 0
 0
 0
 0
 0
 0
 0
 0
 0
 0
 0
 0
 0
 0
 0
 0
 0
 0
 0
 0
 0
 0
 0
 0
 0
 0
 0
 0
 0
 0
 0
 0
 0
 0
 0
 0
 0
 0
 0
 0
 0
 0
 0
 0
 0
 0
 0
 0
 0
 0
 0
 0
 0
 0
 0
 0
 0
 0
 0
 0
 0
 0
 0
 0
 0
 0
 0
 0
 0
 0
 0
 0
 0
 0
 0
 0
 0
 0
 0
 0
 0
 0
 0
 0
 0
 0
 0
 0
 0
 0
 0
 0
 0
 0
 0
 0
 0
 0
 0
 0
 0
 0
 0
 0
 0
 0
 0
 0
 0
 0
 0
 0
 0
 0
 0
 0
 0
 0
 0
 0
 0
 0
 0
 0
 0
 0
 0
 0
 0
 0
 0
 0
 0
 0
 0
 0
 0
 0
 0
 0
 0
 0
 0
 0
 0
 0
 0
 0
 0
 0
 0
 0
 0
 0
 0
 0
 0
 0
 0
 0
 0
 0
 0
 0
 0
 0
 0
 0
 0
 0
 0
 0
 0
 0
 0
 0
 0
 0
 0
 0
 0
 0
 0
 0
 0
 0
 0
 0
 0
 0
 0
 0
 0
 0
 0
 0
 0
 0
 0
 0
 0
 0
 0
 0
 0
 0
 0
 0
 0
 0
 0
 0
 0
 0
 0
 0
 0
 0
 0
 0
 0
 0
 0
 0
 0
 0
 0
 0
 0
 0
 0
 0
 0
 0
 0
 0
 0
 0
 0
 0
 0
 0
 0
 0
 0
 0
 0
 0
 0
 0
 0
 0
 0
 0
 0
 0
 0
 0
 0
 0
 0
 0
 0
 0
 0
 0
 0
 0
 0
 0
 0
 0
 0
 0
 0
 0
 0
 0
 0
 0
 0
 0
 0
 0
 0
 0
 0
 0
 0
 0
 0
 0
 0
 0
 0
 0
 0
 0
 0
 0
 0
 0
 0
 0
 0
 0
 0
 0
 0
 0
 0
 0
 0
 0
 0
 0
 0
 0
 0
 0
 0
 0
 0
 0
 0
 0
 0
 0
 0
 0
 0
 0
 0
 0
 0
 0
 0
 0
 0
 0
 0
 0
 0
 0
 0
 0
 0
 0
 0
 0
 0
 0
 0
 0
 0
 0
 0
 0
 0
 0
 0
 0
 0
 0
 0
 0
 0
 0
 0
 0
 0
 0
 0
 0
 0
 0
 0
 0
 0
 0
 0
 0
 0
 0
 0
 0
 0
 0
 0
 0
 0
 0
 0
 0
 0
 0
 0
 0
 0
 0
 0
 0
 0
 0
 0
 0
 0
 0
 0
 0
 0
 0
 0
 0
 0
 0
 0
 0
 0
 0
 0
 0
 0
 0
 0
 0
 0
 0
 0
 0
 0
 0
 0
 0
 0
 0
 0
 0
 0
 0
 0
 0
 0
 0
 0
 0
 0
 0
 0
 0
 0
 0
 0
 0
 0
 0
 0
 0
 0
 0
 0
 0
 0
 0
 0
 0
 0
 0
 0
 0
 0
 0
 0
 0
 0
 0
 0
 0
 0
 0
 0
 0
 0
 0
 0
 0
 0
 0
 0
 0
 0
 0
 0
 0
 0
 0
 0
 0
 0
 0
 0
 0
 0
 0
 0
 0
 0
 0
 0
 0
 0
 0
 0
 0
 0
 0
 0
 0
 0
 0
 0
 0
 0
 0
 0
 0
 0
 0
 0
 0
 0
 0
 0
 0
 0
 0
 0
 0
 0
 0
 0
 0
 0
 0
 0
 0
 0
 0
 0
 0
 0
 0
 0
 0
 0
 0
 0
 0
 0
 0
 0
 0
 0
 0
 0
 0
 0
 0
 0
 0
 0
 0
 0
 0
 0
 0
 0
 0
 0
 0
 0
 0
 0
 0
 0
 0
 0
 0
 0
 0
 0
 0
 0
 0
 0
 0
 0
 0
 0
 0
 0
 0
 0
 0
 0
 0
 0
 0
 0
 0
 0
 0
 0
 0
 0
 0
 0
 0
 0
 0
 0
 0
 0
 0
 0
 0
 -31771.8
 -32520.5
 -32537.9
 -31233.3
 -31898.7
 -31486.4
 -32300.6
 -32229.7
 -31334.7
 -31766.3
 -31367.4
 -31505
 -32203.8
 -31262.8
 -31223.9
 -32241.2
 -31692.7
 -31919.7
 -31328.2
 -31448.2
 -31042.9
 -32259.2
 -32017.4
 -32334.7
 -32113.7
 -31833
 -32956.7
 -31581.2
 -31416.2
 -31420.3
 -31438
 -32485.8
 -31139.6
 -31232.5
 -32043.8
 -31611.5
 -31361.4
 -30757
 -32101.5
 -31896.5
 -32191.7
 -31245.8
 -31746.3
 -31425.2
 -32077.5
 -32200.6
 -32518.3
 -32274.9
 -31800.5
 -32009
 -31420.3
 -32193.1
 -31683.1
 -32954.3
 -30882.4
 -31868.6
 -31096.6
 -31308
 -32447.1
 -31540.7
 -32349.4
 -32062.6
 -31051
 -31431.2
 -32351.4
 -31767.8
 -31635.7
 -32640.2
 -31060.3
 -31841.2
 -32252.4
 -31388.3
 -31594.8
 -32470
 -31088.5
 -31272.8
 -31767.1
 -31428.2
 -31368.8
 -32640.7
 -31621.4
 -31345.3
 -31866.7
 -31406.4
 -31613.7
 -32631.1
 -31583.9
 -32292.7
 -31464
 -31012
 -33064.3
 -31728.2
 -31940.9
 -31798
 -30896.4
 -32428.1
 -31404.1
 -31690.9
 -31893
 -30967.2
 -32354.7
 -32076.3
 -30975.7
 -32045.8
 -31287
 -31236.5
 -32687.2
 -30645
 -31746.1
 -31218.4
 -32400
 -30831.6
 -32198
 -31523.6
 -32292.5
 -32894.2
 -32635.5
 -32303.7
 -32543.2
 -32101
 -31885.7
 -32406.9
 -32496.6
 -31638.5
 -30980.7
 -31416.2
 -31098.6
 -31825.5
 -31668.9
 -31058.7
 -32058
 -32339.7
 -31796.5
 -30957.7
 -31963.2
 -31529.2
 -32157
 -33193.3
 -31203
 -30828.6
 -33068.7
 -30692
 -31546.6
 -31302.6
 -31491.3
 -30904.4
 -32503.5
 -31402.9
 -31463.8
 -31232.1
 -32087.6
 -31268.8
 -31128.4
 -31659.9
 -31495.6
 -31974
 -31968
 -30994.3
 -31711.7
 -31814.6
 -32558.8
 -31670.4
 -31728.4
 -31760.6
 -32077.4
 -31585.8
 -31156.1
 -31753.9
 -31305.5
 -31029
 -31227.5
 -31148.6
 -32026.7
 -30891.9
 -31152.6
 -31130.2
 -31483.6
 -31306
 -31644.2
 -31790.1
 -33063.9
 -31289.9
 -31913.4
 -32491.4
 -31577.5
 -31582.6
 -31783.1
 -31637.5
 -31170.6
 -31798
 -31987
 -32855.9
 -31320.7
 -32163.1
 -31073.5
 -31448.3
 -31762.4
 -32201.5
 -32462.2
 -31746.2
 -31780.6
 -31137.4
 -32767.8
 -31832.9
 -32097.4
 -31609.4
 -31517.4
 -32266.3
 -30852.3
 -31803.7
 -31284.1
 -31204.5
 -31937.9
 -30717.7
 -32054.3
 -31574.3
 -31680.5
 -31543.5
 -31236.4
 -31438.4
 -32772.2
 -31517.1
 -31954.8
 -32177.9
 -31800.8
 -31488.4
 -31874.3
 -31910.7
 -31829.7
 -30865.7
 -32083.3
 -30547.2
 -32146.6
 -32175.1
 -31389.8
 -31368.7
 -31727.4
 -31075.2
 -31662
 -32416.6
 -31122.2
 -31368.1
 -31133.1
 -30927
 -32067.9
 -31497.1
 -32284.4
 -31291.5
 -31474.2
 -31370.7
 -31929.8
 -31088.5
 -31662.1
 -32479.5
 -31463.9
 -32822.4
 -31670.2
 -31773.3
 -31619.6
 -31792.4
 -31449.2
 -33270.6
 -31409.1
 -31288.2
 -31994.1
 -31277
 -31000.4
 -31252.2
 -31976.9
 -31453.1
 -31912.1
 -31460.2
 -32333.8
 -31912.2
 -32033.4
 -31378.2
 -31221.6
 -31926.4
 -30854
 -32187.7
 -32322.2
 -31809.6
 -31502.8
 -32078.8
 -31064.3
 -31285.5
 -31814.5
 -31721.1
 -31405.3
 -32362.4
 -31458.3
 -32299.8
 -31619.7
 -32203.2
 -31634.8
 -32197.4
 -31623.9
 -31686
 -31647.4
 -31968.8
 -31474.6
 -32297.8
 -31453
 -32223.4
 -30643.8
 -32186.7
 -32119.5
 -31623.5
 -32005.4
 -31579.9
 -31941.8
 -31298.6
 -32340.3
 -31535.7
 -31089
 -32798.5
 -31448
 -31091.5
 -31896.8
 -31348.9
 -31791.9
 -31485.2
 -31099
 -32395.5
 -31101.5
 -31359.3
 -31309.4
 -32274.1
 -31539.2
 -31575
 -32768.9
 -31843
 -31334.3
 -31611.6
 -31849.8
 -30653.1
 -31217.1
 -31951.5
 -31660.7
 -32610
 -31414.7
 -31573.6
 -31428.7
 -31294.1
 -31277.7
 -31258
 -31432.8
 -32108.9
 -32485.6
 -32450.7
 -32005.1
 -31772.2
 -31612.3
 -31741
 -31660.1
 -31587.8
 -31238.2
 -32629.7
 -32351.6
 -32551.7
 -31493.3
 -31303.5
 -31762.8
 -31890
 -31704.2
 -31821.8
 -32633.2
 -31508.8
 -31451.6
 -31417
 -31971.6
 -31576.1
 -32042.5
 -31635.1
 -31112
 -30732.6
 -31787
 -31421
 -32359.9
 -32610.7
 -31432.6
 -31630.5
 -31372.9
 -31423.5
 -31944.3
 -31536.7
 -31748.1
 -31488
 -30788.5
 -32868.6
 -31853.7
 -31953.9
 -32344.4
 -31249.1
 -32310.1
 -31759
 -31539.7
 -31881.7
 -31506.3
 -32073
 -32676.5
 -30880.1
 -32007.4
 -31941.3
 -32237.5
 -31867.4
 -31812.6
 -31968.5
 -31004.5
 -31931
 -32435
 -31894.2
 -31372.9
 -30767.4
 -31457.7
 -32379.2
 -32169.8
 -30818.6
 -31556.6
 -31448.7
 -31890.2
 -31016.2
 -32123.5
 -31536.9
 -33714.4
 -31706.6
 -31481.5
 -31564.2
 -31493.1
 -31682.1
 -31794.6
 -31700.9
 -31947.6
 -31202
 -31339.7
 -31317.1
 -31441
 -32345.3
 -31127.6
 -32519.2
 -31606
 -30761.9
 -31385.3
 -31601.1
 -31613.5
 -31600.3
 -32194
 -32093.1
 -31516.2
 -31363
 -31832.6
 -31428.9
 -31671.1
 -31540.3
 -32993.7
 -33019.7
 -31357.5
 -31395.8
 -31462.4
 -31330.8
 -32012
 -31489.5
 -31528.1
 -32156.2
 -32326.5
 -31591.7
 -31670.2
 -31823.4
 -31913.2
 -31752.9
 -31735.2
 -31463.7
 -32957.1
 -31826.3
 -31347.4
 -31787.4
 -31961.5
 -31382
 -31060.2
 -32072.5
 -31442.4
 -32345.9
 -31516.7
 -30981.7
 -32739.7
 -32016.7
 -31640.9
 -31501
 -31542.1
 -31737.4
 -31310.8
 -32287.6
 -31539.2
 -31580.5
 -31745.5
 -31718.1
 -31106.2
 -31232.5
 -31189.2
 -32282.3
 -31458
 -31465.5
 -31992.8
 -31609.1
 -31535.5
 -32520.5
 -32851.3
 -31466.5
 -32091.1
 -31365.4
 -31872
 -31407
 -31713.5
 -31843
 -32046.9
 -33301.8
 -31680
 -32209.1
 -30894
 -31150.2
 -31580.2
 -31049.9
 -31219.1
 -32317.7
 -32035.1
 -31245.6
 -31532.1
 -31468.9
 -31165.4
 -31714.5
 -31799.5
 -31642
 -32554.7
 -31340.7
 -31026
 -32615.9
 -31558.4
 -31380.2
 -32095.2
 -32121.2
 -31928.7
 -31068.5
 -32113
 -31326.6
 -31526
 -31769.6
 -31890.8
 -31845.9
 -30825.6
 -31995.9
 -31064
 -31390.1
 -32027.5
 -32632.3
 -31743.5
 -32564.3
 -31255.4
 -31568.9
 -32153.8
 -31624.3
 -30723.1
 -31350
 -32626.2
 -31595
 -31488
 -31054.9
 -31109.8
 -31367.5
 -32214.2
 -31388.4
 -31576.5
 -31613.1
 -31369
 -31076.1
 -31210
 -31550.9
 -31298.6
 -31279.1
 -32112
 -31864.3
 -31402.6
 -31291.1
 -31690.7
 -31046
 -31258.2
 -32446
 -31365
 -31027.8
 -31874.5
 -31164.5
 -31802.4
 -33151.2
 -31671.5
 -33814.7
 -32352.2
 -31256.6
 -31918.9
 -32051.5
 -30965.8
 -31411.3
 -31415.3
 -31480.7
 -31299.4
 -31786.1
 -31559.9
 -31340.8
 -31848.1
 -31719.6
 -31916.9
 -31756.3
 -31697.4
 -32369.5
 -31738.2
 -31483.2
 -32023.5
 -32243.1
 -31730.4
 -31572.8
 -31556.3
 -32737.8
 -31105.5
 -31938
 -32053
 -31213.1
 -32426.3
 -31804.1
 -32421.8
 -31610
 -30890.4
 -32408.9
 -32336.1
 -32767.4
 -32072.1
 -31695.5
 -31048
 -31435.1
 -31757
 -31489.2
 -31954.3
 -31845.6
 -31842.2
 -31708
 -31177.4
 -32354.6
 -31582.8
 -31732.3
 -32227.1
 -32145.5
 -32021.5
 -31955.3
 -31676
 -31260.1
 -32052.6
 -31278.9
 -30795.5
 -31348
 -31301.9
 -31970.9
 -32793.4
 -31989.7
 -31881.4
 -31950.8
 -32073.7
 -31481.9
 -30958
 -32099.6
 -31733.5
 -31664.9
 -31409.1
 -31570.9
 -31473.2
 -32987
 -32063.1
 -31821.9
 -31666.5
 -32082.1
 -33118.5
 -32000.5
 -31839.2
 -31422.5
 -31283.9
 -31707.8
 -32061
 -31646.9
 -31715.4
 -31765
 -32349.1
 -31645
 -32033.7
 -32487
 -31563
 -31303.7
 -31648
 -31582.8
 -32327.2
 -31195.3
 -32458.8
 -31747
 -32307.4
 -32016.9
 -31625.5
 -32295.2
 -31494.6
 -32147.3
 -31427.5
 -31811.5
 -31719.9
 -31784.5
 -32005.2
 -32302.5
 -31381.2
 -32154.3
 -31946.6
 -31682.5
 -31885.2
 -32361.1
 -31739
 -31526.9
 -31029.6
 -31160.7
 -32082.5
 -31417.4
 -31456.7
 -32109
 -31469.9
 -31436
 -31571.8
 -31213
 -31118.9
 -31744.1
 -32105.1
 -32352.7
 -31303.5
 -31317.7
 -31478.3
 -32272.4
 -31907.8
 -31555.7
 -31854.5
 -32336
 -32051
 -31503.2
 -32406.4
 -31259.7
 -31205.6
 -31567.5
 -32064.5
 -31694.6
 -32251.3
 -31657.9
 -32411.9
 -31758
 -31344
 -31509.6
 -32041
 -32830.9
 -31768.7
 -31335.8
 -31546.3
 -31780.4
 -31676.9
 -33350.3
 -32057
 -31630.2
 -31163
 -32764.9
 -31641.7
 -31873
 -32125.2
 -31745.3
 -32730.1
 -31963.3
 -31630
 -31883.3
 -30874.8
 -30955.4
 -31701.9
 -30615.6
 -31067.1
 -31489.1
 -31747.8
 -31925
 -31771.5
 -32684.3
 -31848.5
 -32211.1
 -32376.7
 -31381.6
 -31486
 -32291.5
 -31170.7
 -31305.2
 -32241.6
 -32177.8
 -31254.2
 -31505
 -32059.9
 -31514.6
 -31943.9
 -31459.1

SurfaceElement_HEAT_Q 1 2400 FLOAT 
 0
 0
 0
 0
 0
 0
 0
 0
 0
 0
 0
 0
 0
 0
 0
 0
 0
 0
 0
 0
 0
 0
 0
 0
 0
 0
 0
 0
 0
 0
 0
 0
 0
 0
 0
 0
 0
 0
 0
 0
 0
 0
 0
 0
 0
 0
 0
 0
 0
 0
 0
 0
 0
 0
 0
 0
 0
 0
 0
 0
 0
 0
 0
 0
 0
 0
 0
 0
 0
 0
 0
 0
 0
 0
 0
 0
 0
 0
 0
 0
 0
 0
 0
 0
 0
 0
 0
 0
 0
 0
 0
 0
 0
 0
 0
 0
 0
 0
 0
 0
 0
 0
 0
 0
 0
 0
 0
 0
 0
 0
 0
 0
 0
 0
 0
 0
 0
 0
 0
 0
 0
 0
 0
 0
 0
 0
 0
 0
 0
 0
 0
 0
 0
 0
 0
 0
 0
 0
 0
 0
 0
 0
 0
 0
 0
 0
 0
 0
 0
 0
 0
 0
 0
 0
 0
 0
 0
 0
 0
 0
 0
 0
 0
 0
 0
 0
 0
 0
 0
 0
 0
 0
 0
 0
 0
 0
 0
 0
 0
 0
 0
 0
 0
 0
 0
 0
 0
 0
 0
 0
 0
 0
 0
 0
 0
 0
 0
 0
 0
 0
 0
 0
 0
 0
 0
 0
 0
 0
 0
 0
 0
 0
 0
 0
 0
 0
 0
 0
 0
 0
 0
 0
 0
 0
 0
 0
 0
 0
 0
 0
 0
 0
 0
 0
 0
 0
 0
 0
 0
 0
 0
 0
 0
 0
 0
 0
 0
 0
 0
 0
 0
 0
 0
 0
 0
 0
 0
 0
 0
 0
 0
 0
 0
 0
 0
 0
 0
 0
 0
 0
 0
 0
 0
 0
 0
 0
 0
 0
 0
 0
 0
 0
 0
 0
 0
 0
 0
 0
 0
 0
 0
 0
 0
 0
 0
 0
 0
 0
 0
 0
 0
 0
 0
 0
 0
 0
 0
 0
 0
 0
 0
 0
 0
 0
 0
 0
 0
 0
 0
 0
 0
 0
 0
 0
 0
 0
 0
 0
 0
 0
 0
 0
 0
 0
 0
 0
 0
 0
 0
 0
 0
 0
 0
 0
 0
 0
 0
 0
 0
 0
 0
 0
 0
 0
 0
 0
 0
 0
 0
 0
 0
 0
 0
 0
 0
 0
 0
 0
 0
 0
 0
 0
 0
 0
 0
 0
 0
 0
 0
 0
 0
 0
 0
 0
 0
 0
 0
 0
 0
 0
 0
 0
 0
 0
 0
 0
 0
 0
 0
 0
 0
 0
 0
 0
 0
 0
 0
 0
 0
 0
 0
 0
 0
 0
 0
 0
 0
 0
 0
 0
 0
 0
 0
 0
 0
 0
 0
 0
 0
 0
 0
 0
 0
 0
 0
 0
 0
 0
 0
 0
 0
 0
 0
 0
 0
 0
 0
 0
 0
 0
 0
 0
 0
 0
 0
 0
 0
 0
 0
 0
 0
 0
 0
 0
 0
 0
 0
 0
 0
 0
 0
 0
 0
 0
 0
 0
 0
 0
 0
 0
 0
 0
 0
 0
 0
 0
 0
 0
 0
 0
 0
 0
 0
 0
 0
 0
 0
 0
 0
 0
 0
 0
 0
 0
 0
 0
 0
 0
 0
 0
 0
 0
 0
 0
 0
 0
 0
 0
 0
 0
 0
 0
 0
 0
 0
 0
 0
 0
 0
 0
 0
 0
 0
 0
 0
 0
 0
 0
 0
 0
 0
 0
 0
 0
 0
 0
 0
 0
 0
 0
 0
 0
 0
 0
 0
 0
 0
 0
 0
 0
 0
 0
 0
 0
 0
 0
 0
 0
 0
 0
 0
 0
 0
 0
 0
 0
 0
 0
 0
 0
 0
 0
 0
 0
 0
 0
 0
 0
 0
 0
 0
 0
 0
 0
 0
 0
 0
 0
 0
 0
 0
 0
 0
 0
 0
 0
 0
 0
 0
 0
 0
 0
 0
 0
 0
 0
 0
 0
 0
 0
 0
 0
 0
 0
 0
 0
 0
 0
 0
 0
 0
 0
 0
 0
 0
 0
 0
 0
 0
 0
 0
 0
 0
 0
 0
 0
 0
 0
 0
 0
 0
 0
 0
 0
 0
 0
 0
 0
 0
 0
 0
 0
 0
 0
 0
 0
 0
 0
 0
 0
 0
 0
 0
 0
 0
 0
 0
 0
 0
 0
 0
 0
 0
 0
 0
 0
 0
 0
 0
 0
 0
 0
 0
 0
 0
 0
 0
 0
 0
 0
 0
 0
 0
 0
 0
 0
 0
 0
 0
 0
 0
 0
 0
 0
 0
 0
 0
 0
 0
 0
 0
 0
 0
 0
 0
 0
 0
 0
 0
 0
 0
 0
 0
 0
 0
 0
 0
 0
 0
 0
 0
 0
 0
 0
 0
 0
 0
 0
 0
 0
 0
 0
 0
 0
 0
 0
 0
 0
 0
 0
 0
 0
 0
 0
 0
 0
 0
 0
 0
 0
 0
 0
 0
 0
 0
 0
 0
 0
 0
 0
 0
 0
 0
 0
 0
 0
 0
 0
 0
 0
 0
 0
 0
 0
 0
 0
 0
 0
 0
 0
 0
 0
 0
 0
 0
 0
 0
 0
 0
 0
 0
 0
 0
 0
 0
 0
 0
 0
 0
 0
 0
 0
 0
 0
 0
 0
 0
 0
 0
 0
 0
 0
 0
 0
 0
 0
 0
 0
 0
 0
 0
 0
 0
 0
 0
 0
 0
 0
 0
 0
 0
 0
 0
 0
 0
 0
 0
 0
 0
 0
 0
 0
 0
 0
 0
 0
 0
 0
 0
 0
 0
 0
 0
 0
 0
 0
 0
 0
 0
 0
 0
 0
 0
 0
 0
 0
 0
 0
 0
 0
 0
 0
 0
 0
 0
 0
 0
 0
 0
 0
 0
 0
 0
 0
 0
 0
 0
 0
 0
 0
 0
 0
 0
 0
 0
 0
 0
 0
 0
 0
 0
 0
 0
 0
 0
 0
 0
 0
 0
 0
 0
 0
 0
 0
 0
 0
 0
 0
 0
 0
 0
 0
 0
 0
 0
 0
 0
 0
 0
 0
 0
 0
 0
 0
 0
 0
 0
 0
 0
 0
 0
 0
 0
 0
 0
 0
 0
 0
 0
 0
 0
 0
 0
 0
 0
 0
 0
 0
 0
 0
 0
 0
 0
 0
 0
 0
 0
 0
 0
 0
 0
 0
 0
 0
 0
 0
 0
 0
 0
 0
 0
 0
 0
 0
 0
 0
 0
 0
 0
 0
 0
 0
 0
 0
 0
 0
 0
 0
 0
 0
 0
 0
 0
 0
 0
 0
 0
 0
 0
 0
 0
 0
 0
 0
 0
 0
 0
 0
 0
 0
 0
 0
 0
 0
 0
 0
 0
 0
 0
 0
 0
 0
 0
 0
 0
 0
 0
 0
 0
 0
 0
 0
 0
 0
 0
 0
 0
 0
 0
 0
 0
 0
 0
 0
 0
 0
 0
 0
 0
 0
 0
 0
 0
 0
 0
 0
 0
 0
 0
 0
 0
 0
 0
 0
 0
 0
 0
 0
 0
 0
 0
 0
 0
 0
 0
 0
 0
 0
 0
 0
 0
 0
 0
 0
 0
 0
 0
 0
 0
 0
 0
 0
 0
 0
 0
 0
 0
 0
 0
 0
 0
 0
 0
 0
 0
 0
 0
 0
 0
 0
 0
 0
 0
 0
 0
 0
 0
 0
 0
 0
 0
 0
 0
 0
 0
 0
 0
 0
 0
 0
 0
 0
 0
 0
 0
 0
 0
 0
 0
 0
 0
 0
 0
 0
 0
 0
 0
 0
 0
 0
 0
 0
 0
 0
 0
 0
 0
 0
 0
 0
 0
 0
 0
 0
 0
 0
 0
 0
 0
 0
 0
 0
 0
 0
 0
 0
 0
 0
 0
 0
 0
 0
 0
 0
 0
 0
 0
 0
 0
 0
 0
 0
 0
 0
 0
 0
 0
 0
 0
 0
 0
 0
 0
 0
 0
 0
 0
 0
 0
 0
 0
 0
 0
 0
 0
 0
 0
 0
 0
 0
 0
 0
 0
 0
 0
 0
 0
 0
 0
 0
 0
 0
 0
 0
 0
 0
 0
 0
 0
 0
 0
 0
 0
 0
 0
 0
 0
 0
 0
 0
 0
 0
 0
 0
 0
 0
 0
 0
 0
 0
 0
 0
 0
 0
 0
 0
 0
 0
 0
 0
 0
 0
 0
 0
 0
 0
 0
 0
 0
 0
 0
 0
 0
 0
 0
 0
 0
 0
 0
 0
 0
 0
 0
 0
 0
 0
 0
 0
 0
 0
 0
 0
 0
 0
 0
 0
 0
 0
 0
 0
 0
 0
 0
 0
 0
 0
 0
 0
 0
 0
 0
 0
 0
 0
 0
 0
 0
 0
 0
 0
 0
 0
 0
 0
 0
 0
 0
 0
 0
 0
 0
 0
 0
 0
 0
 0
 0
 0
 0
 0
 0
 0
 0
 0
 0
 0
 0
 0
 0
 0
 0
 0
 0
 0
 0
 0
 0
 0
 0
 0
 0
 0
 0
 0
 0
 0
 0
 0
 0
 0
 0
 0
 0
 0
 0
 0
 0
 0
 0
 0
 0
 0
 0
 0
 0
 0
 0
 0
 0
 0
 0
 0
 0
 0
 0
 0
 0
 0
 0
 0
 0
 0
 0
 0
 0
 0
 0
 0
 0
 0
 0
 0
 0
 0
 0
 0
 0
 0
 0
 0
 0
 0
 0
 0
 0
 0
 0
 0
 0
 0
 0
 0
 0
 0
 0
 0
 0
 0
 0
 0
 0
 0
 0
 0
 0
 0
 0
 0
 0
 0
 0
 0
 0
 0
 0
 0
 0
 0
 0
 0
 0
 0
 0
 0
 0
 0
 0
 0
 0
 0
 0
 0
 0
 0
 0
 0
 0
 0
 0
 0
 0
 0
 0
 0
 0
 0
 0
 0
 0
 0
 0
 0
 0
 0
 0
 0
 0
 0
 0
 0
 0
 0
 0
 0
 0
 0
 0
 0
 0
 0
 0
 0
 0
 0
 0
 0
 0
 0
 0
 0
 0
 0
 0
 0
 0
 0
 0
 0
 0
 0
 0
 0
 0
 0
 0
 0
 0
 0
 0
 0
 0
 0
 0
 0
 0
 0
 0
 0
 0
 0
 0
 0
 0
 0
 0
 0
 0
 0
 0
 0
 -1985.74
 -2032.53
 -2033.62
 -1952.08
 -1993.67
 -1967.9
 -2018.78
 -2014.35
 -1958.42
 -1985.4
 -1960.46
 -1969.06
 -2012.73
 -1953.92
 -1951.5
 -2015.07
 -1980.79
 -1994.98
 -1958.01
 -1965.51
 -1940.18
 -2016.2
 -2001.09
 -2020.92
 -2007.11
 -1989.56
 -2059.79
 -1973.82
 -1963.51
 -1963.77
 -1964.88
 -2030.36
 -1946.22
 -1952.03
 -2002.74
 -1975.72
 -1960.09
 -1922.32
 -2006.35
 -1993.53
 -2011.98
 -1952.86
 -1984.14
 -1964.07
 -2004.84
 -2012.54
 -2032.39
 -2017.18
 -1987.53
 -2000.56
 -1963.77
 -2012.07
 -1980.19
 -2059.65
 -1930.15
 -1991.79
 -1943.54
 -1956.75
 -2027.94
 -1971.29
 -2021.84
 -2003.91
 -1940.69
 -1964.45
 -2021.96
 -1985.49
 -1977.23
 -2040.01
 -1941.27
 -1990.08
 -2015.78
 -1961.77
 -1974.67
 -2029.37
 -1943.03
 -1954.55
 -1985.44
 -1964.26
 -1960.55
 -2040.04
 -1976.34
 -1959.08
 -1991.67
 -1962.9
 -1975.86
 -2039.45
 -1973.99
 -2018.3
 -1966.5
 -1938.25
 -2066.52
 -1983.01
 -1996.31
 -1987.37
 -1931.02
 -2026.75
 -1962.76
 -1980.68
 -1993.31
 -1935.45
 -2022.17
 -2004.77
 -1935.98
 -2002.86
 -1955.43
 -1952.28
 -2042.95
 -1915.31
 -1984.13
 -1951.15
 -2025
 -1926.97
 -2012.38
 -1970.22
 -2018.28
 -2055.89
 -2039.72
 -2018.98
 -2033.95
 -2006.31
 -1992.86
 -2025.43
 -2031.04
 -1977.41
 -1936.3
 -1963.51
 -1943.67
 -1989.1
 -1979.3
 -1941.17
 -2003.63
 -2021.23
 -1987.28
 -1934.86
 -1997.7
 -1970.58
 -2009.81
 -2074.58
 -1950.19
 -1926.79
 -2066.8
 -1918.25
 -1971.66
 -1956.41
 -1968.21
 -1931.53
 -2031.47
 -1962.68
 -1966.49
 -1952.01
 -2005.48
 -1954.3
 -1945.52
 -1978.74
 -1968.48
 -1998.37
 -1998
 -1937.15
 -1981.98
 -1988.41
 -2034.93
 -1979.4
 -1983.02
 -1985.04
 -2004.84
 -1974.11
 -1947.25
 -1984.62
 -1956.6
 -1939.31
 -1951.72
 -1946.79
 -2001.67
 -1930.75
 -1947.04
 -1945.64
 -1967.72
 -1956.62
 -1977.76
 -1986.88
 -2066.49
 -1955.62
 -1994.59
 -2030.71
 -1973.6
 -1973.91
 -1986.44
 -1977.34
 -1948.16
 -1987.38
 -1999.19
 -2053.5
 -1957.54
 -2010.19
 -1942.09
 -1965.52
 -1985.15
 -2012.6
 -2028.89
 -1984.14
 -1986.29
 -1946.09
 -2047.99
 -1989.56
 -2006.09
 -1975.59
 -1969.84
 -2016.64
 -1928.27
 -1987.73
 -1955.26
 -1950.28
 -1996.12
 -1919.86
 -2003.39
 -1973.39
 -1980.03
 -1971.47
 -1952.28
 -1964.9
 -2048.26
 -1969.82
 -1997.18
 -2011.12
 -1987.55
 -1968.02
 -1992.14
 -1994.42
 -1989.36
 -1929.11
 -2005.21
 -1909.2
 -2009.16
 -2010.94
 -1961.86
 -1960.54
 -1982.96
 -1942.2
 -1978.87
 -2026.04
 -1945.14
 -1960.5
 -1945.82
 -1932.94
 -2004.24
 -1968.57
 -2017.77
 -1955.72
 -1967.14
 -1960.67
 -1995.61
 -1943.03
 -1978.88
 -2029.97