# vtk DataFile Version 2.0
Three-D cube divergence of heat flux and Q in volume elements
ASCII
DATASET UNSTRUCTURED_GRID

POINTS  9261  FLOAT
 -2.5 -2.5 -2.5
 -2.35129 -2.5 -2.5
 -2.18607 -2.5 -2.5
 -2.00248 -2.5 -2.5
 -1.79849 -2.5 -2.5
 -1.57184 -2.5 -2.5
 -1.32001 -2.5 -2.5
 -1.04019 -2.5 -2.5
 -0.729286 -2.5 -2.5
 -0.383835 -2.5 -2.5
 0 -2.5 -2.5
 0.383835 -2.5 -2.5
 0.729286 -2.5 -2.5
 1.04019 -2.5 -2.5
 1.32001 -2.5 -2.5
 1.57184 -2.5 -2.5
 1.79849 -2.5 -2.5
 2.00248 -2.5 -2.5
 2.18607 -2.5 -2.5
 2.35129 -2.5 -2.5
 2.5 -2.5 -2.5
 -2.5 -2.25 -2.5
 -2.35129 -2.25 -2.5
 -2.18607 -2.25 -2.5
 -2.00248 -2.25 -2.5
 -1.79849 -2.25 -2.5
 -1.57184 -2.25 -2.5
 -1.32001 -2.25 -2.5
 -1.04019 -2.25 -2.5
 -0.729286 -2.25 -2.5
 -0.383835 -2.25 -2.5
 0 -2.25 -2.5
 0.383835 -2.25 -2.5
 0.729286 -2.25 -2.5
 1.04019 -2.25 -2.5
 1.32001 -2.25 -2.5
 1.57184 -2.25 -2.5
 1.79849 -2.25 -2.5
 2.00248 -2.25 -2.5
 2.18607 -2.25 -2.5
 2.35129 -2.25 -2.5
 2.5 -2.25 -2.5
 -2.5 -2 -2.5
 -2.35129 -2 -2.5
 -2.18607 -2 -2.5
 -2.00248 -2 -2.5
 -1.79849 -2 -2.5
 -1.57184 -2 -2.5
 -1.32001 -2 -2.5
 -1.04019 -2 -2.5
 -0.729286 -2 -2.5
 -0.383835 -2 -2.5
 0 -2 -2.5
 0.383835 -2 -2.5
 0.729286 -2 -2.5
 1.04019 -2 -2.5
 1.32001 -2 -2.5
 1.57184 -2 -2.5
 1.79849 -2 -2.5
 2.00248 -2 -2.5
 2.18607 -2 -2.5
 2.35129 -2 -2.5
 2.5 -2 -2.5
 -2.5 -1.75 -2.5
 -2.35129 -1.75 -2.5
 -2.18607 -1.75 -2.5
 -2.00248 -1.75 -2.5
 -1.79849 -1.75 -2.5
 -1.57184 -1.75 -2.5
 -1.32001 -1.75 -2.5
 -1.04019 -1.75 -2.5
 -0.729286 -1.75 -2.5
 -0.383835 -1.75 -2.5
 0 -1.75 -2.5
 0.383835 -1.75 -2.5
 0.729286 -1.75 -2.5
 1.04019 -1.75 -2.5
 1.32001 -1.75 -2.5
 1.57184 -1.75 -2.5
 1.79849 -1.75 -2.5
 2.00248 -1.75 -2.5
 2.18607 -1.75 -2.5
 2.35129 -1.75 -2.5
 2.5 -1.75 -2.5
 -2.5 -1.5 -2.5
 -2.35129 -1.5 -2.5
 -2.18607 -1.5 -2.5
 -2.00248 -1.5 -2.5
 -1.79849 -1.5 -2.5
 -1.57184 -1.5 -2.5
 -1.32001 -1.5 -2.5
 -1.04019 -1.5 -2.5
 -0.729286 -1.5 -2.5
 -0.383835 -1.5 -2.5
 0 -1.5 -2.5
 0.383835 -1.5 -2.5
 0.729286 -1.5 -2.5
 1.04019 -1.5 -2.5
 1.32001 -1.5 -2.5
 1.57184 -1.5 -2.5
 1.79849 -1.5 -2.5
 2.00248 -1.5 -2.5
 2.18607 -1.5 -2.5
 2.35129 -1.5 -2.5
 2.5 -1.5 -2.5
 -2.5 -1.25 -2.5
 -2.35129 -1.25 -2.5
 -2.18607 -1.25 -2.5
 -2.00248 -1.25 -2.5
 -1.79849 -1.25 -2.5
 -1.57184 -1.25 -2.5
 -1.32001 -1.25 -2.5
 -1.04019 -1.25 -2.5
 -0.729286 -1.25 -2.5
 -0.383835 -1.25 -2.5
 0 -1.25 -2.5
 0.383835 -1.25 -2.5
 0.729286 -1.25 -2.5
 1.04019 -1.25 -2.5
 1.32001 -1.25 -2.5
 1.57184 -1.25 -2.5
 1.79849 -1.25 -2.5
 2.00248 -1.25 -2.5
 2.18607 -1.25 -2.5
 2.35129 -1.25 -2.5
 2.5 -1.25 -2.5
 -2.5 -1 -2.5
 -2.35129 -1 -2.5
 -2.18607 -1 -2.5
 -2.00248 -1 -2.5
 -1.79849 -1 -2.5
 -1.57184 -1 -2.5
 -1.32001 -1 -2.5
 -1.04019 -1 -2.5
 -0.729286 -1 -2.5
 -0.383835 -1 -2.5
 0 -1 -2.5
 0.383835 -1 -2.5
 0.729286 -1 -2.5
 1.04019 -1 -2.5
 1.32001 -1 -2.5
 1.57184 -1 -2.5
 1.79849 -1 -2.5
 2.00248 -1 -2.5
 2.18607 -1 -2.5
 2.35129 -1 -2.5
 2.5 -1 -2.5
 -2.5 -0.75 -2.5
 -2.35129 -0.75 -2.5
 -2.18607 -0.75 -2.5
 -2.00248 -0.75 -2.5
 -1.79849 -0.75 -2.5
 -1.57184 -0.75 -2.5
 -1.32001 -0.75 -2.5
 -1.04019 -0.75 -2.5
 -0.729286 -0.75 -2.5
 -0.383835 -0.75 -2.5
 0 -0.75 -2.5
 0.383835 -0.75 -2.5
 0.729286 -0.75 -2.5
 1.04019 -0.75 -2.5
 1.32001 -0.75 -2.5
 1.57184 -0.75 -2.5
 1.79849 -0.75 -2.5
 2.00248 -0.75 -2.5
 2.18607 -0.75 -2.5
 2.35129 -0.75 -2.5
 2.5 -0.75 -2.5
 -2.5 -0.5 -2.5
 -2.35129 -0.5 -2.5
 -2.18607 -0.5 -2.5
 -2.00248 -0.5 -2.5
 -1.79849 -0.5 -2.5
 -1.57184 -0.5 -2.5
 -1.32001 -0.5 -2.5
 -1.04019 -0.5 -2.5
 -0.729286 -0.5 -2.5
 -0.383835 -0.5 -2.5
 0 -0.5 -2.5
 0.383835 -0.5 -2.5
 0.729286 -0.5 -2.5
 1.04019 -0.5 -2.5
 1.32001 -0.5 -2.5
 1.57184 -0.5 -2.5
 1.79849 -0.5 -2.5
 2.00248 -0.5 -2.5
 2.18607 -0.5 -2.5
 2.35129 -0.5 -2.5
 2.5 -0.5 -2.5
 -2.5 -0.25 -2.5
 -2.35129 -0.25 -2.5
 -2.18607 -0.25 -2.5
 -2.00248 -0.25 -2.5
 -1.79849 -0.25 -2.5
 -1.57184 -0.25 -2.5
 -1.32001 -0.25 -2.5
 -1.04019 -0.25 -2.5
 -0.729286 -0.25 -2.5
 -0.383835 -0.25 -2.5
 0 -0.25 -2.5
 0.383835 -0.25 -2.5
 0.729286 -0.25 -2.5
 1.04019 -0.25 -2.5
 1.32001 -0.25 -2.5
 1.57184 -0.25 -2.5
 1.79849 -0.25 -2.5
 2.00248 -0.25 -2.5
 2.18607 -0.25 -2.5
 2.35129 -0.25 -2.5
 2.5 -0.25 -2.5
 -2.5 0 -2.5
 -2.35129 0 -2.5
 -2.18607 0 -2.5
 -2.00248 0 -2.5
 -1.79849 0 -2.5
 -1.57184 0 -2.5
 -1.32001 0 -2.5
 -1.04019 0 -2.5
 -0.729286 0 -2.5
 -0.383835 0 -2.5
 0 0 -2.5
 0.383835 0 -2.5
 0.729286 0 -2.5
 1.04019 0 -2.5
 1.32001 0 -2.5
 1.57184 0 -2.5
 1.79849 0 -2.5
 2.00248 0 -2.5
 2.18607 0 -2.5
 2.35129 0 -2.5
 2.5 0 -2.5
 -2.5 0.25 -2.5
 -2.35129 0.25 -2.5
 -2.18607 0.25 -2.5
 -2.00248 0.25 -2.5
 -1.79849 0.25 -2.5
 -1.57184 0.25 -2.5
 -1.32001 0.25 -2.5
 -1.04019 0.25 -2.5
 -0.729286 0.25 -2.5
 -0.383835 0.25 -2.5
 0 0.25 -2.5
 0.383835 0.25 -2.5
 0.729286 0.25 -2.5
 1.04019 0.25 -2.5
 1.32001 0.25 -2.5
 1.57184 0.25 -2.5
 1.79849 0.25 -2.5
 2.00248 0.25 -2.5
 2.18607 0.25 -2.5
 2.35129 0.25 -2.5
 2.5 0.25 -2.5
 -2.5 0.5 -2.5
 -2.35129 0.5 -2.5
 -2.18607 0.5 -2.5
 -2.00248 0.5 -2.5
 -1.79849 0.5 -2.5
 -1.57184 0.5 -2.5
 -1.32001 0.5 -2.5
 -1.04019 0.5 -2.5
 -0.729286 0.5 -2.5
 -0.383835 0.5 -2.5
 0 0.5 -2.5
 0.383835 0.5 -2.5
 0.729286 0.5 -2.5
 1.04019 0.5 -2.5
 1.32001 0.5 -2.5
 1.57184 0.5 -2.5
 1.79849 0.5 -2.5
 2.00248 0.5 -2.5
 2.18607 0.5 -2.5
 2.35129 0.5 -2.5
 2.5 0.5 -2.5
 -2.5 0.75 -2.5
 -2.35129 0.75 -2.5
 -2.18607 0.75 -2.5
 -2.00248 0.75 -2.5
 -1.79849 0.75 -2.5
 -1.57184 0.75 -2.5
 -1.32001 0.75 -2.5
 -1.04019 0.75 -2.5
 -0.729286 0.75 -2.5
 -0.383835 0.75 -2.5
 0 0.75 -2.5
 0.383835 0.75 -2.5
 0.729286 0.75 -2.5
 1.04019 0.75 -2.5
 1.32001 0.75 -2.5
 1.57184 0.75 -2.5
 1.79849 0.75 -2.5
 2.00248 0.75 -2.5
 2.18607 0.75 -2.5
 2.35129 0.75 -2.5
 2.5 0.75 -2.5
 -2.5 1 -2.5
 -2.35129 1 -2.5
 -2.18607 1 -2.5
 -2.00248 1 -2.5
 -1.79849 1 -2.5
 -1.57184 1 -2.5
 -1.32001 1 -2.5
 -1.04019 1 -2.5
 -0.729286 1 -2.5
 -0.383835 1 -2.5
 0 1 -2.5
 0.383835 1 -2.5
 0.729286 1 -2.5
 1.04019 1 -2.5
 1.32001 1 -2.5
 1.57184 1 -2.5
 1.79849 1 -2.5
 2.00248 1 -2.5
 2.18607 1 -2.5
 2.35129 1 -2.5
 2.5 1 -2.5
 -2.5 1.25 -2.5
 -2.35129 1.25 -2.5
 -2.18607 1.25 -2.5
 -2.00248 1.25 -2.5
 -1.79849 1.25 -2.5
 -1.57184 1.25 -2.5
 -1.32001 1.25 -2.5
 -1.04019 1.25 -2.5
 -0.729286 1.25 -2.5
 -0.383835 1.25 -2.5
 0 1.25 -2.5
 0.383835 1.25 -2.5
 0.729286 1.25 -2.5
 1.04019 1.25 -2.5
 1.32001 1.25 -2.5
 1.57184 1.25 -2.5
 1.79849 1.25 -2.5
 2.00248 1.25 -2.5
 2.18607 1.25 -2.5
 2.35129 1.25 -2.5
 2.5 1.25 -2.5
 -2.5 1.5 -2.5
 -2.35129 1.5 -2.5
 -2.18607 1.5 -2.5
 -2.00248 1.5 -2.5
 -1.79849 1.5 -2.5
 -1.57184 1.5 -2.5
 -1.32001 1.5 -2.5
 -1.04019 1.5 -2.5
 -0.729286 1.5 -2.5
 -0.383835 1.5 -2.5
 0 1.5 -2.5
 0.383835 1.5 -2.5
 0.729286 1.5 -2.5
 1.04019 1.5 -2.5
 1.32001 1.5 -2.5
 1.57184 1.5 -2.5
 1.79849 1.5 -2.5
 2.00248 1.5 -2.5
 2.18607 1.5 -2.5
 2.35129 1.5 -2.5
 2.5 1.5 -2.5
 -2.5 1.75 -2.5
 -2.35129 1.75 -2.5
 -2.18607 1.75 -2.5
 -2.00248 1.75 -2.5
 -1.79849 1.75 -2.5
 -1.57184 1.75 -2.5
 -1.32001 1.75 -2.5
 -1.04019 1.75 -2.5
 -0.729286 1.75 -2.5
 -0.383835 1.75 -2.5
 0 1.75 -2.5
 0.383835 1.75 -2.5
 0.729286 1.75 -2.5
 1.04019 1.75 -2.5
 1.32001 1.75 -2.5
 1.57184 1.75 -2.5
 1.79849 1.75 -2.5
 2.00248 1.75 -2.5
 2.18607 1.75 -2.5
 2.35129 1.75 -2.5
 2.5 1.75 -2.5
 -2.5 2 -2.5
 -2.35129 2 -2.5
 -2.18607 2 -2.5
 -2.00248 2 -2.5
 -1.79849 2 -2.5
 -1.57184 2 -2.5
 -1.32001 2 -2.5
 -1.04019 2 -2.5
 -0.729286 2 -2.5
 -0.383835 2 -2.5
 0 2 -2.5
 0.383835 2 -2.5
 0.729286 2 -2.5
 1.04019 2 -2.5
 1.32001 2 -2.5
 1.57184 2 -2.5
 1.79849 2 -2.5
 2.00248 2 -2.5
 2.18607 2 -2.5
 2.35129 2 -2.5
 2.5 2 -2.5
 -2.5 2.25 -2.5
 -2.35129 2.25 -2.5
 -2.18607 2.25 -2.5
 -2.00248 2.25 -2.5
 -1.79849 2.25 -2.5
 -1.57184 2.25 -2.5
 -1.32001 2.25 -2.5
 -1.04019 2.25 -2.5
 -0.729286 2.25 -2.5
 -0.383835 2.25 -2.5
 0 2.25 -2.5
 0.383835 2.25 -2.5
 0.729286 2.25 -2.5
 1.04019 2.25 -2.5
 1.32001 2.25 -2.5
 1.57184 2.25 -2.5
 1.79849 2.25 -2.5
 2.00248 2.25 -2.5
 2.18607 2.25 -2.5
 2.35129 2.25 -2.5
 2.5 2.25 -2.5
 -2.5 2.5 -2.5
 -2.35129 2.5 -2.5
 -2.18607 2.5 -2.5
 -2.00248 2.5 -2.5
 -1.79849 2.5 -2.5
 -1.57184 2.5 -2.5
 -1.32001 2.5 -2.5
 -1.04019 2.5 -2.5
 -0.729286 2.5 -2.5
 -0.383835 2.5 -2.5
 0 2.5 -2.5
 0.383835 2.5 -2.5
 0.729286 2.5 -2.5
 1.04019 2.5 -2.5
 1.32001 2.5 -2.5
 1.57184 2.5 -2.5
 1.79849 2.5 -2.5
 2.00248 2.5 -2.5
 2.18607 2.5 -2.5
 2.35129 2.5 -2.5
 2.5 2.5 -2.5
 -2.5 -2.5 -2.25
 -2.35129 -2.5 -2.25
 -2.18607 -2.5 -2.25
 -2.00248 -2.5 -2.25
 -1.79849 -2.5 -2.25
 -1.57184 -2.5 -2.25
 -1.32001 -2.5 -2.25
 -1.04019 -2.5 -2.25
 -0.729286 -2.5 -2.25
 -0.383835 -2.5 -2.25
 0 -2.5 -2.25
 0.383835 -2.5 -2.25
 0.729286 -2.5 -2.25
 1.04019 -2.5 -2.25
 1.32001 -2.5 -2.25
 1.57184 -2.5 -2.25
 1.79849 -2.5 -2.25
 2.00248 -2.5 -2.25
 2.18607 -2.5 -2.25
 2.35129 -2.5 -2.25
 2.5 -2.5 -2.25
 -2.5 -2.25 -2.25
 -2.35129 -2.25 -2.25
 -2.18607 -2.25 -2.25
 -2.00248 -2.25 -2.25
 -1.79849 -2.25 -2.25
 -1.57184 -2.25 -2.25
 -1.32001 -2.25 -2.25
 -1.04019 -2.25 -2.25
 -0.729286 -2.25 -2.25
 -0.383835 -2.25 -2.25
 0 -2.25 -2.25
 0.383835 -2.25 -2.25
 0.729286 -2.25 -2.25
 1.04019 -2.25 -2.25
 1.32001 -2.25 -2.25
 1.57184 -2.25 -2.25
 1.79849 -2.25 -2.25
 2.00248 -2.25 -2.25
 2.18607 -2.25 -2.25
 2.35129 -2.25 -2.25
 2.5 -2.25 -2.25
 -2.5 -2 -2.25
 -2.35129 -2 -2.25
 -2.18607 -2 -2.25
 -2.00248 -2 -2.25
 -1.79849 -2 -2.25
 -1.57184 -2 -2.25
 -1.32001 -2 -2.25
 -1.04019 -2 -2.25
 -0.729286 -2 -2.25
 -0.383835 -2 -2.25
 0 -2 -2.25
 0.383835 -2 -2.25
 0.729286 -2 -2.25
 1.04019 -2 -2.25
 1.32001 -2 -2.25
 1.57184 -2 -2.25
 1.79849 -2 -2.25
 2.00248 -2 -2.25
 2.18607 -2 -2.25
 2.35129 -2 -2.25
 2.5 -2 -2.25
 -2.5 -1.75 -2.25
 -2.35129 -1.75 -2.25
 -2.18607 -1.75 -2.25
 -2.00248 -1.75 -2.25
 -1.79849 -1.75 -2.25
 -1.57184 -1.75 -2.25
 -1.32001 -1.75 -2.25
 -1.04019 -1.75 -2.25
 -0.729286 -1.75 -2.25
 -0.383835 -1.75 -2.25
 0 -1.75 -2.25
 0.383835 -1.75 -2.25
 0.729286 -1.75 -2.25
 1.04019 -1.75 -2.25
 1.32001 -1.75 -2.25
 1.57184 -1.75 -2.25
 1.79849 -1.75 -2.25
 2.00248 -1.75 -2.25
 2.18607 -1.75 -2.25
 2.35129 -1.75 -2.25
 2.5 -1.75 -2.25
 -2.5 -1.5 -2.25
[...]
CELL_DATA 8000
FIELD DOMAIN 2
VOL_DIV_q 1 8000 FLOAT 
 69654.5
 24489.8
 15166.8
 11756.2
 9351.7
 7618.55
 6900.41
 6001.21
 5924.37
 5871.32
 5760.44
 5631.69
 6627.8
 6691.43
 7922.15
 9088.53
 12025.4
 14976.8
 22969.7
 71065.8
 67694
 23597.9
 17578.3
 12613.8
 10534
 8741.36
 7542.61
 6112.1
 6334.14
 5383.47
 5531.01
 5811.83
 6228.8
 6590.33
 7751.26
 10849.1
 12150.9
 16755.2
 22777.2
 72105.8
 67242.6
 23435.7
 15105.6
 12389.7
 10564.9
 7967.72
 7095.02
 6606.72
 5559.94
 5626.31
 5562.13
 5750.8
 6110.64
 6682.24
 7990.67
 9137.24
 12134
 14233
 24023.5
 66529.4
 68783.9
 25182.4
 15318.5
 11683.2
 10090.8
 7957.33
 7056.49
 6373.06
 5467.81
 5405.38
 5824.6
 6056.5
 5793.06
 6559.59
 8377.24
 10340.9
 11245.7
 13831.1
 25758.1
 68306.2
 68742
 24951.9
 17518.4
 12210.8
 9693.42
 8327.74
 7566.6
 6538.51
 5662.89
 6131.86
 5348.66
 5535.57
 6693.76
 7161.58
 8217.92
 9394.48
 12085.7
 15802.6
 25329.3
 66462.8
 65123.5
 23078.7
 16330.4
 11421
 9786.12
 7881.33
 6755.62
 5853.34
 5627.29
 5752.13
 5076.48
 5933.63
 6666.52
 6474.59
 7783.51
 10227.4
 11921.9
 15493
 23829.5
 64992.6
 65591.2
 23517.2
 16566.4
 11447.3
 10299.9
 8495.09
 6779.38
 5879.38
 6054.97
 5557.18
 5331.33
 5971.86
 5695.65
 7127.17
 8046.66
 9607.46
 12634.1
 15897.2
 22399.9
 66670
 69737.2
 23574.2
 16079.8
 11595.7
 9890.44
 7701.11
 7400.19
 6305.65
 5760.96
 5998.06
 5416
 6185.46
 5816.67
 7100.03
 8331.73
 8846.52
 11285.6
 16398.6
 26155
 67065.2
 69284.6
 23376.4
 15246.1
 11854.3
 9572.41
 8094.94
 7019.38
 6028
 6380.26
 5337.92
 5437.48
 6037.79
 6489.65
 7719.18
 8569.76
 9309.8
 11964.2
 15057.5
 24402.1
 68751.6
 67134.3
 23806.3
 16166.3
 12329.8
 9520.74
 8535.49
 7630.34
 6249.47
 6055.42
 5963.13
 5664.98
 5610.64
 5896.45
 7115.52
 8289
 9640.14
 11376.3
 17616.6
 23070.4
 66644.9
 70977.8
 23172.2
 15727.6
 12078.8
 9903.28
 8304.91
 6822.84
 7238.79
 5417.14
 5817.8
 5905.91
 5535.96
 6101.44
 7009.57
 7608.62
 10039.3
 11370.6
 16107.2
 24419.9
 72783.8
 67422.2
 22440.9
 16855.7
 11842.8
 9576.57
 8096.38
 8170.63
 6185.11
 6042.94
 5589.73
 5468.15
 6137.38
 6236.33
 8029.4
 7909.59
 9792.71
 12553.1
 16596.3
 25110.4
 67536.9
 64222.2
 24624.4
 15755.3
 11875.6
 9456.31
 8521.67
 6680.84
 6430.8
 5928.69
 5497.56
 5735.02
 5777.37
 6445.8
 6700.91
 8266.96
 8754.02
 12481.4
 16012.9
 22624.7
 69194.4
 68048.5
 23246.9
 15197.5
 11741.9
 8606.81
 8453.55
 6906.84
 5910.15
 5282.65
 5514.69
 5614.42
 4835.22
 6308.01
 6925.51
 8070.34
 10515.6
 11946.3
 17091.7
 21647.9
 68187.5
 67101.6
 23386.7
 16836
 13054.1
 10007.3
 7766.48
 6911.58
 6255.63
 5510.68
 5492.76
 5787.96
 5715.19
 6001.1
 6532.68
 8792.84
 9308.3
 11836.2
 14719.2
 25221.4
 66451.8
 66886.6
 22858.9
 15961.1
 11411.6
 9646.75
 8166.34
 7222.24
 6555.71
 5411.1
 5497.2
 5724.28
 5148.46
 6908.12
 6548.16
 8443.12
 9515.27
 11695.8
 15698.3
 25821.6
 69237.7
 70986.7
 25986.6
 15436.5
 12850.7
 8904.38
 7723.97
 7699.59
 5857.58
 6202.68
 4887.31
 5504.02
 5774.53
 6410.63
 6229.79
 8073.72
 8996.72
 11955.4
 16173.8
 21273.1
 65921.4
 70696.4
 24878.9
 16620.6
 11966.9
 10122.5
 8177.73
 6949.42
 5943.95
 5468.79
 5619.41
 5838.22
 5303.29
 5889.35
 7220.67
 7288.46
 9444.72
 10654.8
 15384.1
 24843.3
 65598.8
 62766.5
 24088.4
 15105.6
 12332.7
 9835.1
 7837.96
 7257.76
 5987.41
 5999.74
 5591.42
 5560.32
 5913.46
 6264.2
 7041.21
 8619.33
 9261.22
 11918.4
 16226.3
 25811.5
 66757.1
 67011.6
 25578.3
 15200.3
 12549.6
 9576.24
 8018.15
 7225.65
 6319.38
 5510.13
 5474.35
 5527.77
 5639.48
 5976.39
 6897.96
 8974.78
 10623.1
 11883.3
 16601.2
 24872.6
 66542.5
 68135.4
 23691.2
 16471.8
 10782.8
 10504.6
 8114.19
 6925.85
 6189.5
 5537.33
 6047.6
 5357.12
 6084.3
 6403.33
 6457.13
 8690.04
 9205.6
 11772.9
 14935.6
 23977.4
 68149.4
 65941.4
 22395.9
 16047.6
 11710.4
 9074.05
 8062.95
 7101.54
 6795.95
 5432.22
 5473.25
 5218.04
 5866.08
 6073.45
 6635.28
 8169.26
 9598.84
 11835.5
 16861.9
 22790.6
 68829.2
 67703.9
 24721.2
 16706.1
 12723.5
 10418
 8063.45
 7573.44
 6595.12
 5493.3
 5715.88
 5156.07
 5881.33
 6075.04
 6875.5
 8021.25
 9075.25
 11913.7
 16418.8
 23889.2
 66933.9
 67673.3
 24143.7
 15842.9
 12990.4
 8849.22
 8063.08
 6822.14
 5817.12
 5793.29
 4916.17
 5608.24
 6032.26
 6267.72
 7403.79
 8181.21
 9704.6
 11811.7
 14467.8
 22830.5
 66083.2
 68398.1
 23669
 14971
 11700.9
 9963.2
 8249.81
 7652.59
 6317.08
 5869.34
 5190.52
 5693.78
 5802.05
 6292.4
 6366.36
 7817.52
 9655.27
 13329
 15861.2
 25137.6
 64946.5
 63828.9
 24247.8
 17664.7
 11680.8
 9398.27
 7869.58
 7201.24
 6440.34
 5314.27
 6133.97
 5552.63
 6174.76
 6392.25
 7250.81
 8189.07
 10071.1
 11729.8
 16660.1
 23601
 66380.2
 65538.3
 22017.7
 17013.1
 12252.6
 9770.83
 8895.09
 7185.9
 5615.73
 5904.53
 5973.1
 5799.29
 5791.7
 5921.9
 6443.81
 9119.03
 10089.6
 12284.2
 17189.4
 21810.3
 66509.6
 64966.2
 22959.9
 15605.3
 13369.5
 8804.1
 7537.09
 7105
 6744.69
 5861.53
 5652.22
 5290.83
 5635.52
 6292.04
 6309.81
 8125.22
 8932.7
 12138.7
 16365.1
 22791
 68003.7
 68617.1
 23681.6
 15293.9
 12917.8
 9443.04
 8331.92
 7403.65
 5500.03
 5658.17
 5496.31
 5388.76
 5689.75
 5576.42
 7854.54
 7459.11
 9837.71
 11556.9
 16660.9
 23670.4
 68584.3
 69744.4
 24844.7
 16285.8
 12294.2
 8572.13
 7795.37
 6741.95
 6016.16
 5881.89
 5637.42
 5561.98
 5814.99
 6691.2
 7339.17
 8394.16
 9347.46
 12260
 15080.9
 23906.1
 67684
 65486.9
 25964.1
 16099.7
 12751.3
 10041.8
 7433.13
 7194
 6574.05
 6249.11
 4693.35
 5515.62
 5613.92
 5729.62
 7301.6
 8269.74
 9426.4
 12964.5
 17569.8
 24848.5
 67134.4
 70747.7
 25224.7
 16888.5
 11854.2
 9254.73
 7547.62
 7034
 6216.45
 6036.68
 6113.13
 6025.8
 5592.97
 6494.51
 7242.92
 8173.68
 9420.5
 11131.2
 17141.2
 22240.3
 67295.4
 64839.2
 23806.4
 17030.5
 11021.9
 9094.71
 7586.64
 7045.41
 6021.9
 5532.37
 5689.7
 5223.73
 5728.05
 6599.35
 6385.6
 8918.99
 9415.09
 11627.4
 15744.7
 24328.9
 70908.8
 68761.9
 23965.6
 17409.8
 11621.7
 9053
 8610.39
 6311.69
 6469
 5765.9
 5659.75
 5705.25
 6035.3
 6022.74
 6917.72
 8665.29
 10029.7
 12606.6
 15758.7
 22456
 68482.7
 69370.2
 22360.2
 16609.1
 11862.1
 9966.67
 7675.5
 7105.13
 6683.43
 6443.5
 5771.55
 5750.55
 5681.6
 6385.31
 7408.78
 8807.04
 9207.85
 13070.4
 16221.7
 22907.9
 66675.2
 67822.1
 23307.6
 14264.7
 11774.3
 10283
 8055.98
 6568.21
 5701.28
 6024.58
 5328.57
 5613.7
 5987.57
 6404.7
 6967.49
 8612.51
 9274.88
 13628
 16872.1
 22520.8
 67920.9
 66102.3
 23299.3
 15486.6
 13423.9
 9349.6
 7850.17
 7336.46
 6575.51
 5329.49
 5334.76
 5498.55
 5974.29
 6407.31
 6710.49
 8686.64
 10056.4
 11525.7
 15872.7
 25097.7
 66136.5
 67925.4
 23582.8
 17198.8
 12406.4
 9732.24
 8304.45
 7529.65
 6788.4
 5318
 5681.16
 5085.68
 5900.12
 5551.59
 7439.87
 7508.33
 9443.18
 12048.8
 16709.1
 23788.2
 66121
 68654.9
 23328
 17356.4
 12543.9
 9074.13
 7605.57
 7424.04
 6691.5
 5988.77
 5307.62
 5555.92
 5834.64
 6673.69
 7600
 8623.9
 11054.2
 11530.3
 16248.2
 23425.9
 67177.3
 66161.2
 23519.1
 16279.7
 12447.7
 9933.67
 8122.74
 7059.83
 6346.04
 5817.48
 6038.84
 5988.12
 5766.22
 6584.39
 7251.58
 8326.94
 9540.08
 11545.1
 16887
 23924.2
 68849.6
 67944.8
 22768.6
 16385.7
 11910.7
 9806.31
 7766.88
 7410.94
 6477.59
 5752.55
 6099.07
 5726.36
 6055.79
 6608.29
 7225.66
 7333.77
 10079.7
 11286.2
 16061.3
 24067.1
 65858
 70899.6
 23737.9
 15832.3
 12479.5
 9350.08
 8657.51
 7664.12
 6312.34
 5819.57
 5197.85
 5256.06
 5991.08
 6524.33
 7318.14
 8394.27
 9603.34
 12355.8
 16480
 24005
 66780.7
 67299.4
 24599.4
 15861.3
 12806.3
 9210.54
 8679.23
 6980.63
 6315.25
 5760.8
 5258.92
 5864.01
 5820.46
 6321.13
 6509.38
 8750.99
 9233.39
 12730.8
 16176
 23394
 69975.9
 68993.6
 24844.9
 14847
 11140.4
 9543.61
 8432.67
 6747.74
 5762.66
 5294.28
 5884.38
 5720.57
 5881.34
 5554.95
 7317.72
 7942.65
 9577.42
 12940.6
 16975.4
 23349.8
 66103.9
 65857.7
 24047.8
 15737.6
 11047.1
 9622.23
 8196.08
 6968.46
 6531.42
 5962.5
 4937.43
 5531.75
 5823.09
 6097.29
 7243.23
 9656.33
 9478.76
 11537.7
 16272.9
 21029.2
 65774.7
 67144.8
 22253.6
 14622.4
 12231.8
 9244.64
 8002.65
 6721.35
 6306.42
 6031.52
 5341.12
 5556.71
 5740.41
 6333.72
 6954.59
 8644.51
 9862.27
 10856.2
 16048.4
 23757
 66267.5
 68863.5
 24862
 16008.6
 11732.2
 10425.9
 7716.63
 7485.57
 7315.34
 5109.11
 5730.11
 5770.44
 5654.16
 5585.47
 6481.08
 8416.73
 10861.8
 12976.6
 17097.7
 24110
 67822.7
 67228.7
 22325.5
 16041
 12269.8
 9427.03
 8404.66
 7118.3
 6942.09
 5624.75
 5740.85
 5423.41
 5799.25
 6255.29
 7157.28
 8076.08
 8861.81
 11895.2
 15906.3
 24921.4
 70925.9
 70820.3
 22806.9
 16040.7
 11375.4
 9344.35
 8829.48
 7314.89
 6652.18
 5903.97
 5091.18
 5569.86
 5873.38
 6272.05
 6445.37
 8472.19
 9811.44
 12446.1
 17340
 24904.4
 65993.1
 69440.4
 25833.2
 16785.3
 13596.4
 10112.8
 8007.6
 6560.94
 6617.96
 5848.46
 5895.75
 5534.59
 5607.41
 6477.63
 7327.03
 8983.32
 9449.51
 11692.4
 17784.9
 25362.3
 66330.9
 64906.4
 25288.7
 15857.3
 11572.1
 9790.62
 7442.25
 7112.24
 6804.78
 5976.58
 5865.64
 5357.45
 6389.61
 7251.48
 6476.82
 7912.67
 11053.4
 12271.2
 17185.2
 24416.9
 68375
 68347.4
 25295.4
 15789.3
 11784.8
 9789.6
 7503.26
 7222.62
 6461.83
 5916.7
 5737.72
 5393
 5487.83
 6387.27
 6839.57
 7998.75
 9255.59
 11764.1
 16524.5
 23724.2
 68302.6
 69514.2
 23513.9
 15109.8
 11338.3
 9329.02
 8836.83
 6764.62
 5592.15
 5578.93
 5314.3
 6062.61
 6080.58
 6434.5
 7000.91
 8406.29
 9734.5
 11853.1
 14127.7
 23006.2
 69731.6
 71999.4
 24941.4
 15652.7
 12590.6
 9691.56
 8501.94
 7304.05
 6314.73
 5767.4
 6031.27
 5759.98
 5678.18
 6591.45
 6489.27
 7368.49
 9389.76
 11246.6
 16602.8
 24663.4
 68471.6
 70258.3
 23341.3
 15409.5
 11792.3
 10825.5
 8404.71
 7630.35
 5778.13
 6081.96
 5807.17
 5553.26
 5731.35
 5795.62
 7302.86
 8298.51
 9803.14
 13141.7
 15047.8
 26120.8
 67082.8
 69915.9
 25557.6
 15348.5
 11640.1
 9915.79
 7047.07
 6786.8
 6371.62
 5780.43
 5300.93
 5592.99
 6173.41
 6110.75
 6621.39
 8123.28
 10348.3
 12267.8
 17696.4
 24405.4
 66874.6
 69189.5
 23371.1
 15949.2
 12496.8
 9873.54
 8165.1
 6955.11
 5847.68
 6394.85
 5608.56
 5900.88
 5786.38
 6795.73
 7580.62
 7848.26
 9726.19
 11902.5
 14575.3
 24673.7
 66175.4
 72358.6
 22651.4
 15706.4
 11877
 9377.69
 7861.27
 6898.94
 6277.64
 5480.81
 5965.42
 5453.93
 5832.33
 5922.23
 6719.11
 7535.86
 9401.29
 12115.5
 15570.4
 24523.3
 62888.6
 67975.2
 24693.6
 14840.3
 11537.3
 8907.44
 7868.52
 7037.62
 6309.34
 5664.02
 5496.18
 5601.28
 5909.39
 6168.67
 7388.96
 8118.61
 9264.28
 11482.3
 16620.8
 23554.3
 71336.4
 69028.5
 23906.1
 15345.7
 10999.7
 9344.63
 7465.65
 6900.8
 5998.22
 5982.62
 5786.5
 5803.86
 5241.7
 5627.85
 7003.88
 7570.56
 9439.45
 12862.7
 17115.7
 23346.6
 68837.7
 67715.3
 24754.4
 14773.9
 11373.1
 9962.01
 8326.59
 6466.01
 6138.47
 5773.14
 5888.13
 5502.92
 5189.21
 6558.51
 6823.35
 7061.84
 9882.46
 11544.6
 17826.7
 24318.8
 64559.3
 66169.7
 23464.9
 16710
 12058.5
 9739.33
 7949.68
 7002.03
 6485.06
 5825.57
 5949.31
 5362.36
 5482.66
 6523.62
 7154.3
 8043.98
 9395.88
 11958.9
 15980.1
 25612.4
 69590.3
 65757.4
 23710.9
 15860.7
 12429
 9683.89
 7518.26
 6561.84
 6061.87
 5736.46
 5027.92
 5682.46
 6589.39
 6595.23
 6716.36
 7553.11
 10326.2
 12124.6
 16273.9
 24441.5
 67219.1
 65362.6
 22568.8
 15381.7
 12939.5
 10779.8
 7924.1
 7290.97
 6174.42
 6194.3
 5779.16
 5573.71
 5156.06
 6862.84
 6955.26
 8085.7
 9330.58
 12768.1
 14946.2
 25377.8
 63794.4
 67130.5
 23303.6
 16070.2
 11923.5
 9454.92
 8778.66
 6724.07
 6293.91
 5275.48
 5523.63
 5715.88
 5105.64
 6434.67
 7088.72
 8768.09
 10303.1
 11926.6
 15401.8
 23043.9
 70378.8
 68189.5
 22491.8
 15629.3
 13090.7
 9793.29
 7929.97
 7167.3
 6471.71
 5472.43
 5468.71
 5882.21
 5804.22
 6368.39
 7228.9
 8739.51
 9667.92
 12187.7
 15779.9
 23922.5
 66848.5
 68440.5
 24313.2
 16564.6
 11747.7
 9181.72
 8100.32
 7339.65
 6294.12
 5890.95
 5473.98
 5133.74
 5841.49
 6229.7
 6508.88
 8368.54
 9296.67
 11622.6
 16495
 24690.4
 66720.5
 64128.2
 24859.9
 15034.6
 12006.8
 10694.2
 8252.92
 7348.56
 5786.7
 5924.64
 5416.52
 5346.16
 6001.07
 6269.68
 7369.15
 8229.29
 9732.95
 12510.1
 16432.6
 22757.5
 69395.7
 68487.2
 24980.3
 14634.1
 12301.6
 9791.64
 8548.9
 7125.67
 6437.02
 5547.9
 5435.37
 5808.14
 5487.02
 6509.68
 7372.04
 7994.43
 9898.19
 11904.1
 16038.2
 24133.4
 67391.4
 66336.8
 24451.2
 15904.4
 11160.3
 9098.32
 8305.22
 7216.98
 6429.14
 5384.29
 5616.35
 5003.68
 5552.89
 7124.24
 6776.4
 8527.34
 8569.36
 13654.9
 16760.7
 24601.6
 66633.7
 65549
 24688.8
 15693
 11589.8
 9675.86
 8897.49
 7280.72
 6399.29
 5655.54
 5738.78
 6446.87
 6053.36
 6170.97
 6842.8
 8402.37
 9652.78
 11561.5
 16226.2
 23274.2
 69222.8
 68529.8
 24964.1
 16903.6
 12292
 9702.24
 7153.94
 6875.62
 5901.76
 5412.19
 5447.12
 5868.69
 5974.24
 6606.71
 7238.91
 8324.94
 9691.58
 11665
 17595.2
 24194.5
 68730.1
 66063.8
 24763.4
 16118.4
 11861.8
 9383.72
 8232.59
 7323.97
 7203.66
 6055.18
 5147.87
 5339.8
 6354.23
 6487.73
 7708.89
 8402.9
 8341.15
 12467.1
 16535.8
 22720.8
 66345.3
 69407.5
 24946.2
 16071.3
 11426.8
 9799.13
 7986.21
 7430.74
 6387.51
 5971.28
 5314.38
 5299.57
 5789.8
 5976.51
 7360.77
 8573.07
 9977.34
 12636.8
 16049.7
 23020.8
 69694.6
 69333.7
 24685
 14411.3
 13092.4
 9996.59
 8245.53
 7418.72
 6576.56
 5956.35
 5643.92
 5579.19
 6039.69
 6727.05
 6887.02
 8740.72
 10128
 10967.7
 16569.7
 22912.3
 65675.2
 70788.4
 24308.2
 15770.6
 11437.5
 9216.68
 7422.91
 7089.77
 5895.15
 5202.49
 5476.71
 5639.38
 5910.26
 6532.17
 7218.48
 8308.54
 10077.5
 12014.8
 16368.1
 24538.2
 68972.4
 65911.6
 23616.6
 15451
 12395.6
 9405.93
 8915.48
 7016.19
 6418.42
 5819.79
 6078.6
 5386.04
 5148.32
 6333.83
 7576.79
 7495.68
 10075.7
 11144.9
 15947.3
 23575.1
 68319.4
 66292.6
 23123.2
 15497.6
 12057.7
 10345.8
 8152.04
 7611.42
 6743.06
 6160.33
 5915.08
 5405.59
 5670.15
 6868.33
 6985.97
 8499.1
 11143.2
 11618.1
 15098.7
 23659.2
 69218.1
 64140.6
 24189.4
 16713.8
 11294.5
 9422.14
 8441.57
 7148.13
 6378.78
 5987.86
 6306.75
 5144.01
 5942.25
 6317.06
 6778.97
 7589.31
 9285.31
 11543.4
 16647.5
 23387
 68792.7
 66573.4
 24699.5
 14950.9
 11172.5
 10690.7
 8281.98
 6625.6
 6149.21
 5507.6
 5725.83
 5981.73
 6106.83
 6061.66
 6206.86
 8438.68
 9410
 11489.6
 15512.6
 24574.4
 71970.8
 66795.7
 24651.4
 14561.1
 12806.9
 8950.5
 8172.24
 6791.7
 6441.69
 5765.93
 5265.74
 5649.65
 5881.98
 6323.82
 7754.75
 8005.85
 9443.89
 11197.7
 16330.7
 26575.9
 69630.3
 66198.1
 26264.9
 15377.4
 12782.1
 9055.48
 8423.69
 7430.52
 5770.33
 6096.49
 5266.88
 6257.4
 5718.74
 6137.37
 6558.08
 8234.66
 8715.54
 11190.4
 16748.7
 24756.1
 66140.3
 64422.6
 22383.2
 14435.9
 12078.6
 9220.3
 8629.46
 7521.29
 6500.4
 5753.46
 5479.37
 5581.92
 6035.05
 6304.92
 6837.73
 8458.94
 9531.38
 11711.7
 15478.2
 23788.9
 67647.9
 67929.7
 22621.9
 16157.2
 12401.7
 10514.1
 7418.22
 6173.78
 6549.02
 6295.64
 5545.03
 6194.54
 4992.18
 6135.07
 6738.81
 7583.12
 9304.15
 11692
 15660.4
 23094.5
 67625.5
 68827.7
 22520.1
 14748.3
 11596.4
 8803.27
 7678.88
 6763.31
 5818.6
 5747.26
 5758.95
 5736.54
 5342.59
 6661.42
 6978.09
 8279.34
 9030.66
 12818.6
 15913
 23939.4
 67105.7
 71801.7
 23809.4
 16128.2
 12708.2
 10516.3
 8329.34
 7561.69
 6066.13
 5645.44
 5376.38
 5606.79
 5920.38
 5856.09
 6072.13
 8220.46
 10434.8
 12913.5
 15048.8
 24748.8
 67992.7
 66287.4
 24285.1
 16164.4
 11519.2
 9687.26
 8773.39
 7591.2
 6311.08
 6046.58
 5743.88
 5346.4
 6327.36
 6221.77
 6683.49
 7868.39
 9293.91
 12051.9
 16759.5
 23130.9
 67252.8
 65784.4
 23410.3
 16962.5
 12086.9
 9657.35
 8005.27
 7023.38
 5789.46
 5922.8
 5123.69
 5779.94
 5998.6
 6939.52
 6695.59
 8195.34
 9080.64
 12027.8
 16479.4
 24954
 67012.8
 71245.6
 22724.1
 14575.2
 11101.3
 9860.55
 8681.99
 6773.33
 6941.79
 5633.43
 5332.26
 5466.69
 5916.92
 6415.84
 6818.31
 7959.8
 9387.2
 11466
 15616.6
 25134.1
 67630.3
 68146
 24791.3
 16191.5
 12356.1
 10904.5
 9155.52
 6520.69
 6287.85
 5834.14
 5586.25
 5826.09
 5746.81
 6269.53
 7055.32
 7981.49
 10856.1
 12387.8
 15955.5
 23977.9
 67548.1
 66224.6
 25417.7
 16559.5
 11321
 10622.6
 7741.77
 7575.09
 5888
 5918.57
 5118.02
 5663.85
 6108.99
 5853.05
 6789.86
 7597.85
 10360.9
 11586.7
 14999.1
 24498.2
 68866.5
 65242.4
 26274.2
 15861.1
 11516.2
 9599.25
 8084.85
 6915.83
 6423.43
 5607.32
 5684.46
 5670.56
 5926.6
 6275.17
 7064.52
 7710.92
 10515.2
 11128.3
 15130.1
 25047.3
 69859.5
 69945.1
 23372.9
 17164
 12097.8
 9506
 8267.18
 6971.51
 6077.33
 5769.08
 5819.46
 5692.7
 5540.21
 6435.59
 7651.92
 8874.53
 9471.81
 11464
 15163.4
 24361
 67029.1
 67561.9
 24279.7
 15113.6
 11739.8
 10653.2
 7767.77
 6827.01
 6177.86
 5900.51
 5880.18
 5623.22
 5844.78
 6733.22
 6989.05
 8458.31
 9953.93
 12757.2
 15882.6
 24255.1
 69697.6
 68360.7
 23651.3
 15577.4
 12487.7
 9371.77
 7672.58
 6524.02
 6638.1
 6262.38
 5680.3
 5463.22
 6054.46
 6396.79
 6044.21
 7849.7
 9388.87
 13168.4
 15387.5
 22233
 68599.4
 66926.8
 24616.2
 15527.6
 12416.5
 9848.7
 9508.05
 6808.85
 5777.14
 5897.88
 5844.52
 5587.93
 5491.39
 6118.44
 7176.33
 7876.43
 10227.3
 12509
 16336.7
 25101.2
 69952.3
 68336.2
 23842.2
 15317.9
 12573.2
 9405.71
 8094.77
 7441.46
 5718.69
 5825.32
 5273.7
 5589.31
 5504.19
 6338.48
 7178.43
 8492.19
 9410.32
 13005.2
 16532
 22169.6
 68758.8
 68939.1
 26158.9
 15578.2
 12324.9
 9411.92
 7825.89
 7554.41
 6141.55
 5907.89
 5607.71
 5562.09
 6153.43
 6312.63
 6912.17
 7613.34
 9979.31
 13093.7
 16857.3
 23549.5
 64665.5
 66214.1
 22069.4
 16327
 11753.3
 10330.5
 7850.58
 6843.76
 6663.5
 5832.7
 5626.33
 5368.91
 5434.23
 6076.76
 6767.21
 7951.82
 8904.5
 12622.4
 17333.5
 23846.2
 69964.7
 69023.8
 24012.6
 16201
 12724.4
 9597.2
 8085.58
 7536.92
 6641.63
 5903.35
 5152.08
 5097.38
 5896.76
 6228.35
 7309.02
 8288
 10250.8
 11906.3
 16413.2
 25030.3
 67240.2
 66388.1
 24397.2
 16317.5
 12514.5
 9686.09
 7657.14
 7152.6
 6206.18
 5795.77
 5718.76
 5728.18
 6214.4
 5722.82
 7181.85
 8446.39
 9418.78
 12390.8
 15239.6
 24520.4
 66963.8
 70186.9
 23953.6
 15269.9
 12229.9
 9414.71
 7203.21
 7663.28
 6725.03
 5890.15
 5197.63
 5854.58
 6061.44
 6667.15
 6462.78
 8652.17
 9826.55
 11922.4
 15028.2
 23972.7
 65374
 69770.4
 26085.2
 15291.1
 12850
 9824.93
 8965.44
 6824.46
 6144.85
 5856.74
 5052.18
 5190.3
 6154.35
 6094.91
 7162.78
 7356.96
 10456.1
 13036.4
 15060
 24332.4
 70028.7
 63728.6
 23896.2
 16076.3
 13057.9
 9026.26
 8550.21
 6870.45
 6327.46
 5276.46
 5645.74
 5448.68
 5450.3
 6597.4
 6977.86
 8503.7
 10614.6
 11618.8
 17261.8
 24352.3
 64152.6
 64945.3
 25303.2
 15488.1
 10972.5
 10344
 7509.52
 6865.26
 6949.14
 6440.16
 5389.62
 5338.22
 5247.81
 6364.67
 7129.21
 8180.8
 8919.95
 11308
 17396.7
 25501.3
 65502.9
 66390.2
 22605
 16864.2
 12684.6
 9550.88
 8088.94
 7169.67
 6062.75
 5919.42
 5411.11
 5234.1
 6219.76
 6193.69
 7182
 7679.38
 10686.5
 12710.6
 15179.9
 22822.6
 66138.8
 69962.9
 23098.7
 15784.1
 11527.1
 9469.45
 8081.14
 7057.96
 6188.6
 5600.65
 5409.42
 5391.12
 6318.46
 6008.69
 7270.21
 7990.58
 9497.3
 11740.5
 17493
 25711.1
 65589.2
 69597
 24323.8
 16464.3
 12435.5
 9431.62
 8336.18
 7101.74
 6692.72
 5640.75
 5496.82
 5729.62
 5377.77
 6103.88
 7092.21
 7576.12
 9934.66
 12023
 16535.4
 25081.9
 67442.8
 66029.4
 23187.2
 16193.4
 12332.4
 10143.9
 8404.07
 6926.74
 6432.25
 6068.37
 5115.13
 5330.92
 5958.26
 6752.41
 7217.36
 7388.52
 10120
 11886.2
 16478.4
 26552.1
 69144.5
 68269.8
 22905.5
 15750.3
 13020.4
 10059.4
 8330.47
 7089.52
 6322.42
 6169.47
 4847.9
 5314.21
 5812.67
 6383.66
 7427.62
 7712.62
 9988.59
 11721.2
 16390.4
 24232
 68106.2
 68597.1
 24194.1
 15119.2
 11353.3
 9087.64
 8407.17
 7066.8
 6909.12
 5654.89
 5517.53
 6222.86
 6382.11
 6967.05
 6464.28
 8453.91
 9986.96
 12725.1
 16588.8
 23739.9
 66010.7
 70086.1
 23191.8
 15896.8
 12440
 10012.2
 8525.52
 7194.13
 6473.49
 5422.57
 5528.02
 5441.44
 5918.39
 6598.02
 7701.3
 8123.76
 9374.48
 12525.5
 16202.2
 24548.7
 65959.2
 67728.5
 22515.1
 14904.5
 11594.2
 9541.89
 7500.51
 6736.15
 5613.2
 6619
 5591.39
 6013.94
 5559.66