# vtk DataFile Version 2.0
Three-D cube surface heat flux and Q display
ASCII
DATASET UNSTRUCTURED_GRID

POINTS 602 FLOAT 
 -0.5 -0.5 -0.5
 -0.4 -0.5 -0.5
 -0.3 -0.5 -0.5
 -0.2 -0.5 -0.5
 -0.1 -0.5 -0.5
 0 -0.5 -0.5
 0.1 -0.5 -0.5
 0.2 -0.5 -0.5
 0.3 -0.5 -0.5
 0.4 -0.5 -0.5
 0.5 -0.5 -0.5
 -0.5 -0.4 -0.5
 -0.4 -0.4 -0.5
 -0.3 -0.4 -0.5
 -0.2 -0.4 -0.5
 -0.1 -0.4 -0.5
 0 -0.4 -0.5
 0.1 -0.4 -0.5
 0.2 -0.4 -0.5
 0.3 -0.4 -0.5
 0.4 -0.4 -0.5
 0.5 -0.4 -0.5
 -0.5 -0.3 -0.5
 -0.4 -0.3 -0.5
 -0.3 -0.3 -0.5
 -0.2 -0.3 -0.5
 -0.1 -0.3 -0.5
 0 -0.3 -0.5
 0.1 -0.3 -0.5
 0.2 -0.3 -0.5
 0.3 -0.3 -0.5
 0.4 -0.3 -0.5
 0.5 -0.3 -0.5
 -0.5 -0.2 -0.5
 -0.4 -0.2 -0.5
 -0.3 -0.2 -0.5
 -0.2 -0.2 -0.5
 -0.1 -0.2 -0.5
 0 -0.2 -0.5
 0.1 -0.2 -0.5
 0.2 -0.2 -0.5
 0.3 -0.2 -0.5
 0.4 -0.2 -0.5
 0.5 -0.2 -0.5
 -0.5 -0.1 -0.5
 -0.4 -0.1 -0.5
 -0.3 -0.1 -0.5
 -0.2 -0.1 -0.5
 -0.1 -0.1 -0.5
 0 -0.1 -0.5
 0.1 -0.1 -0.5
 0.2 -0.1 -0.5
 0.3 -0.1 -0.5
 0.4 -0.1 -0.5
 0.5 -0.1 -0.5
 -0.5 0 -0.5
 -0.4 0 -0.5
 -0.3 0 -0.5
 -0.2 0 -0.5
 -0.1 0 -0.5
 0 0 -0.5
 0.1 0 -0.5
 0.2 0 -0.5
 0.3 0 -0.5
 0.4 0 -0.5
 0.5 0 -0.5
 -0.5 0.1 -0.5
 -0.4 0.1 -0.5
 -0.3 0.1 -0.5
 -0.2 0.1 -0.5
 -0.1 0.1 -0.5
 0 0.1 -0.5
 0.1 0.1 -0.5
 0.2 0.1 -0.5
 0.3 0.1 -0.5
 0.4 0.1 -0.5
 0.5 0.1 -0.5
 -0.5 0.2 -0.5
 -0.4 0.2 -0.5
 -0.3 0.2 -0.5
 -0.2 0.2 -0.5
 -0.1 0.2 -0.5
 0 0.2 -0.5
 0.1 0.2 -0.5
 0.2 0.2 -0.5
 0.3 0.2 -0.5
 0.4 0.2 -0.5
 0.5 0.2 -0.5
 -0.5 0.3 -0.5
 -0.4 0.3 -0.5
 -0.3 0.3 -0.5
 -0.2 0.3 -0.5
 -0.1 0.3 -0.5
 0 0.3 -0.5
 0.1 0.3 -0.5
 0.2 0.3 -0.5
 0.3 0.3 -0.5
 0.4 0.3 -0.5
 0.5 0.3 -0.5
 -0.5 0.4 -0.5
 -0.4 0.4 -0.5
 -0.3 0.4 -0.5
 -0.2 0.4 -0.5
 -0.1 0.4 -0.5
 0 0.4 -0.5
 0.1 0.4 -0.5
 0.2 0.4 -0.5
 0.3 0.4 -0.5
 0.4 0.4 -0.5
 0.5 0.4 -0.5
 -0.5 0.5 -0.5
 -0.4 0.5 -0.5
 -0.3 0.5 -0.5
 -0.2 0.5 -0.5
 -0.1 0.5 -0.5
 0 0.5 -0.5
 0.1 0.5 -0.5
 0.2 0.5 -0.5
 0.3 0.5 -0.5
 0.4 0.5 -0.5
 0.5 0.5 -0.5
 -0.5 -0.5 0.5
 -0.4 -0.5 0.5
 -0.3 -0.5 0.5
 -0.2 -0.5 0.5
 -0.1 -0.5 0.5
 0 -0.5 0.5
 0.1 -0.5 0.5
 0.2 -0.5 0.5
 0.3 -0.5 0.5
 0.4 -0.5 0.5
 0.5 -0.5 0.5
 -0.5 -0.4 0.5
 -0.4 -0.4 0.5
 -0.3 -0.4 0.5
 -0.2 -0.4 0.5
 -0.1 -0.4 0.5
 0 -0.4 0.5
 0.1 -0.4 0.5
 0.2 -0.4 0.5
 0.3 -0.4 0.5
 0.4 -0.4 0.5
 0.5 -0.4 0.5
 -0.5 -0.3 0.5
 -0.4 -0.3 0.5
 -0.3 -0.3 0.5
 -0.2 -0.3 0.5
 -0.1 -0.3 0.5
 0 -0.3 0.5
 0.1 -0.3 0.5
 0.2 -0.3 0.5
 0.3 -0.3 0.5
 0.4 -0.3 0.5
 0.5 -0.3 0.5
 -0.5 -0.2 0.5
 -0.4 -0.2 0.5
 -0.3 -0.2 0.5
 -0.2 -0.2 0.5
 -0.1 -0.2 0.5
 0 -0.2 0.5
 0.1 -0.2 0.5
 0.2 -0.2 0.5
 0.3 -0.2 0.5
 0.4 -0.2 0.5
 0.5 -0.2 0.5
 -0.5 -0.1 0.5
 -0.4 -0.1 0.5
 -0.3 -0.1 0.5
 -0.2 -0.1 0.5
 -0.1 -0.1 0.5
 0 -0.1 0.5
 0.1 -0.1 0.5
 0.2 -0.1 0.5
 0.3 -0.1 0.5
 0.4 -0.1 0.5
 0.5 -0.1 0.5
 -0.5 0 0.5
 -0.4 0 0.5
 -0.3 0 0.5
 -0.2 0 0.5
 -0.1 0 0.5
 0 0 0.5
 0.1 0 0.5
 0.2 0 0.5
 0.3 0 0.5
 0.4 0 0.5
 0.5 0 0.5
 -0.5 0.1 0.5
 -0.4 0.1 0.5
 -0.3 0.1 0.5
 -0.2 0.1 0.5
 -0.1 0.1 0.5
 0 0.1 0.5
 0.1 0.1 0.5
 0.2 0.1 0.5
 0.3 0.1 0.5
 0.4 0.1 0.5
 0.5 0.1 0.5
 -0.5 0.2 0.5
 -0.4 0.2 0.5
 -0.3 0.2 0.5
 -0.2 0.2 0.5
 -0.1 0.2 0.5
 0 0.2 0.5
 0.1 0.2 0.5
 0.2 0.2 0.5
 0.3 0.2 0.5
 0.4 0.2 0.5
 0.5 0.2 0.5
 -0.5 0.3 0.5
 -0.4 0.3 0.5
 -0.3 0.3 0.5
 -0.2 0.3 0.5
 -0.1 0.3 0.5
 0 0.3 0.5
 0.1 0.3 0.5
 0.2 0.3 0.5
 0.3 0.3 0.5
 0.4 0.3 0.5
 0.5 0.3 0.5
 -0.5 0.4 0.5
 -0.4 0.4 0.5
 -0.3 0.4 0.5
 -0.2 0.4 0.5
 -0.1 0.4 0.5
 0 0.4 0.5
 0.1 0.4 0.5
 0.2 0.4 0.5
 0.3 0.4 0.5
 0.4 0.4 0.5
 0.5 0.4 0.5
 -0.5 0.5 0.5
 -0.4 0.5 0.5
 -0.3 0.5 0.5
 -0.2 0.5 0.5
 -0.1 0.5 0.5
 0 0.5 0.5
 0.1 0.5 0.5
 0.2 0.5 0.5
 0.3 0.5 0.5
 0.4 0.5 0.5
 0.5 0.5 0.5
 -0.5 0.5 -0.4
 -0.4 0.5 -0.4
 -0.3 0.5 -0.4
 -0.2 0.5 -0.4
 -0.1 0.5 -0.4
 0 0.5 -0.4
 0.1 0.5 -0.4
 0.2 0.5 -0.4
 0.3 0.5 -0.4
 0.4 0.5 -0.4
 0.5 0.5 -0.4
 -0.5 0.5 -0.3
 -0.4 0.5 -0.3
 -0.3 0.5 -0.3
 -0.2 0.5 -0.3
 -0.1 0.5 -0.3
 0 0.5 -0.3
 0.1 0.5 -0.3
 0.2 0.5 -0.3
 0.3 0.5 -0.3
 0.4 0.5 -0.3
 0.5 0.5 -0.3
 -0.5 0.5 -0.2
 -0.4 0.5 -0.2
 -0.3 0.5 -0.2
 -0.2 0.5 -0.2
 -0.1 0.5 -0.2
 0 0.5 -0.2
 0.1 0.5 -0.2
 0.2 0.5 -0.2
 0.3 0.5 -0.2
 0.4 0.5 -0.2
 0.5 0.5 -0.2
 -0.5 0.5 -0.1
 -0.4 0.5 -0.1
 -0.3 0.5 -0.1
 -0.2 0.5 -0.1
 -0.1 0.5 -0.1
 0 0.5 -0.1
 0.1 0.5 -0.1
 0.2 0.5 -0.1
 0.3 0.5 -0.1
 0.4 0.5 -0.1
 0.5 0.5 -0.1
 -0.5 0.5 0
 -0.4 0.5 0
 -0.3 0.5 0
 -0.2 0.5 0
 -0.1 0.5 0
 0 0.5 0
 0.1 0.5 0
 0.2 0.5 0
 0.3 0.5 0
 0.4 0.5 0
 0.5 0.5 0
 -0.5 0.5 0.1
 -0.4 0.5 0.1
 -0.3 0.5 0.1
 -0.2 0.5 0.1
 -0.1 0.5 0.1
 0 0.5 0.1
 0.1 0.5 0.1
 0.2 0.5 0.1
 0.3 0.5 0.1
 0.4 0.5 0.1
 0.5 0.5 0.1
 -0.5 0.5 0.2
 -0.4 0.5 0.2
 -0.3 0.5 0.2
 -0.2 0.5 0.2
 -0.1 0.5 0.2
 0 0.5 0.2
 0.1 0.5 0.2
 0.2 0.5 0.2
 0.3 0.5 0.2
 0.4 0.5 0.2
 0.5 0.5 0.2
 -0.5 0.5 0.3
 -0.4 0.5 0.3
 -0.3 0.5 0.3
 -0.2 0.5 0.3
 -0.1 0.5 0.3
 0 0.5 0.3
 0.1 0.5 0.3
 0.2 0.5 0.3
 0.3 0.5 0.3
 0.4 0.5 0.3
 0.5 0.5 0.3
 -0.5 0.5 0.4
 -0.4 0.5 0.4
 -0.3 0.5 0.4
 -0.2 0.5 0.4
 -0.1 0.5 0.4
 0 0.5 0.4
 0.1 0.5 0.4
 0.2 0.5 0.4
 0.3 0.5 0.4
 0.4 0.5 0.4
 0.5 0.5 0.4
 -0.5 -0.5 -0.4
 -0.4 -0.5 -0.4
 -0.3 -0.5 -0.4
 -0.2 -0.5 -0.4
 -0.1 -0.5 -0.4
 0 -0.5 -0.4
 0.1 -0.5 -0.4
 0.2 -0.5 -0.4
 0.3 -0.5 -0.4
 0.4 -0.5 -0.4
 0.5 -0.5 -0.4
 -0.5 -0.5 -0.3
 -0.4 -0.5 -0.3
 -0.3 -0.5 -0.3
 -0.2 -0.5 -0.3
 -0.1 -0.5 -0.3
 0 -0.5 -0.3
 0.1 -0.5 -0.3
 0.2 -0.5 -0.3
 0.3 -0.5 -0.3
 0.4 -0.5 -0.3
 0.5 -0.5 -0.3
 -0.5 -0.5 -0.2
 -0.4 -0.5 -0.2
 -0.3 -0.5 -0.2
 -0.2 -0.5 -0.2
 -0.1 -0.5 -0.2
 0 -0.5 -0.2
 0.1 -0.5 -0.2
 0.2 -0.5 -0.2
 0.3 -0.5 -0.2
 0.4 -0.5 -0.2
 0.5 -0.5 -0.2
 -0.5 -0.5 -0.1
 -0.4 -0.5 -0.1
 -0.3 -0.5 -0.1
 -0.2 -0.5 -0.1
 -0.1 -0.5 -0.1
 0 -0.5 -0.1
 0.1 -0.5 -0.1
 0.2 -0.5 -0.1
 0.3 -0.5 -0.1
 0.4 -0.5 -0.1
 0.5 -0.5 -0.1
 -0.5 -0.5 0
 -0.4 -0.5 0
 -0.3 -0.5 0
 -0.2 -0.5 0
 -0.1 -0.5 0
 0 -0.5 0
 0.1 -0.5 0
 0.2 -0.5 0
 0.3 -0.5 0
 0.4 -0.5 0
 0.5 -0.5 0
 -0.5 -0.5 0.1
 -0.4 -0.5 0.1
 -0.3 -0.5 0.1
 -0.2 -0.5 0.1
 -0.1 -0.5 0.1
 0 -0.5 0.1
 0.1 -0.5 0.1
 0.2 -0.5 0.1
 0.3 -0.5 0.1
 0.4 -0.5 0.1
 0.5 -0.5 0.1
 -0.5 -0.5 0.2
 -0.4 -0.5 0.2
 -0.3 -0.5 0.2
 -0.2 -0.5 0.2
 -0.1 -0.5 0.2
 0 -0.5 0.2
 0.1 -0.5 0.2
 0.2 -0.5 0.2
 0.3 -0.5 0.2
 0.4 -0.5 0.2
 0.5 -0.5 0.2
 -0.5 -0.5 0.3
 -0.4 -0.5 0.3
 -0.3 -0.5 0.3
 -0.2 -0.5 0.3
 -0.1 -0.5 0.3
 0 -0.5 0.3
 0.1 -0.5 0.3
 0.2 -0.5 0.3
 0.3 -0.5 0.3
 0.4 -0.5 0.3
 0.5 -0.5 0.3
 -0.5 -0.5 0.4
 -0.4 -0.5 0.4
 -0.3 -0.5 0.4
 -0.2 -0.5 0.4
 -0.1 -0.5 0.4
 0 -0.5 0.4
 0.1 -0.5 0.4
 0.2 -0.5 0.4
 0.3 -0.5 0.4
 0.4 -0.5 0.4
 0.5 -0.5 0.4
 -0.5 -0.4 -0.4
 -0.5 -0.3 -0.4
 -0.5 -0.2 -0.4
 -0.5 -0.1 -0.4
 -0.5 0 -0.4
 -0.5 0.1 -0.4
 -0.5 0.2 -0.4
 -0.5 0.3 -0.4
 -0.5 0.4 -0.4
 -0.5 -0.4 -0.3
 -0.5 -0.3 -0.3
 -0.5 -0.2 -0.3
 -0.5 -0.1 -0.3
 -0.5 0 -0.3
 -0.5 0.1 -0.3
 -0.5 0.2 -0.3
 -0.5 0.3 -0.3
 -0.5 0.4 -0.3
 -0.5 -0.4 -0.2
 -0.5 -0.3 -0.2
 -0.5 -0.2 -0.2
 -0.5 -0.1 -0.2
 -0.5 0 -0.2
 -0.5 0.1 -0.2
 -0.5 0.2 -0.2
 -0.5 0.3 -0.2
 -0.5 0.4 -0.2
 -0.5 -0.4 -0.1
 -0.5 -0.3 -0.1
 -0.5 -0.2 -0.1
 -0.5 -0.1 -0.1
 -0.5 0 -0.1
 -0.5 0.1 -0.1
 -0.5 0.2 -0.1
 -0.5 0.3 -0.1
 -0.5 0.4 -0.1
 -0.5 -0.4 0
 -0.5 -0.3 0
 -0.5 -0.2 0
 -0.5 -0.1 0
 -0.5 0 0
 -0.5 0.1 0
 -0.5 0.2 0
 -0.5 0.3 0
 -0.5 0.4 0
 -0.5 -0.4 0.1
 -0.5 -0.3 0.1
 -0.5 -0.2 0.1
 -0.5 -0.1 0.1
 -0.5 0 0.1
 -0.5 0.1 0.1
 -0.5 0.2 0.1
 -0.5 0.3 0.1
 -0.5 0.4 0.1
 -0.5 -0.4 0.2
 -0.5 -0.3 0.2
 -0.5 -0.2 0.2
 -0.5 -0.1 0.2
 -0.5 0 0.2
 -0.5 0.1 0.2
 -0.5 0.2 0.2
 -0.5 0.3 0.2
 -0.5 0.4 0.2
 -0.5 -0.4 0.3
 -0.5 -0.3 0.3
 -0.5 -0.2 0.3
 -0.5 -0.1 0.3
 -0.5 0 0.3
 -0.5 0.1 0.3
 -0.5 0.2 0.3
 -0.5 0.3 0.3
 -0.5 0.4 0.3
 -0.5 -0.4 0.4
 -0.5 -0.3 0.4
 -0.5 -0.2 0.4
 -0.5 -0.1 0.4
 -0.5 0 0.4
 -0.5 0.1 0.4
 -0.5 0.2 0.4
 -0.5 0.3 0.4
 -0.5 0.4 0.4
 0.5 -0.4 -0.4
 0.5 -0.3 -0.4
 0.5 -0.2 -0.4
 0.5 -0.1 -0.4
 0.5 0 -0.4
 0.5 0.1 -0.4
 0.5 0.2 -0.4
 0.5 0.3 -0.4
 0.5 0.4 -0.4
 0.5 -0.4 -0.3
 0.5 -0.3 -0.3
 0.5 -0.2 -0.3
 0.5 -0.1 -0.3
 0.5 0 -0.3
 0.5 0.1 -0.3
 0.5 0.2 -0.3
 0.5 0.3 -0.3
 0.5 0.4 -0.3
 0.5 -0.4 -0.2
 0.5 -0.3 -0.2
 0.5 -0.2 -0.2
 0.5 -0.1 -0.2
 0.5 0 -0.2
 0.5 0.1 -0.2
 0.5 0.2 -0.2
 0.5 0.3 -0.2
 0.5 0.4 -0.2
 0.5 -0.4 -0.1
 0.5 -0.3 -0.1
 0.5 -0.2 -0.1
 0.5 -0.1 -0.1
 0.5 0 -0.1
 0.5 0.1 -0.1
 0.5 0.2 -0.1
 0.5 0.3 -0.1
 0.5 0.4 -0.1
 0.5 -0.4 0
 0.5 -0.3 0
 0.5 -0.2 0
 0.5 -0.1 0
 0.5 0 0
 0.5 0.1 0
 0.5 0.2 0
 0.5 0.3 0
 0.5 0.4 0
 0.5 -0.4 0.1
 0.5 -0.3 0.1
 0.5 -0.2 0.1
 0.5 -0.1 0.1
 0.5 0 0.1
 0.5 0.1 0.1
 0.5 0.2 0.1
 0.5 0.3 0.1
 0.5 0.4 0.1
 0.5 -0.4 0.2
 0.5 -0.3 0.2
 0.5 -0.2 0.2
 0.5 -0.1 0.2
 0.5 0 0.2
 0.5 0.1 0.2
 0.5 0.2 0.2
 0.5 0.3 0.2
 0.5 0.4 0.2
 0.5 -0.4 0.3
 0.5 -0.3 0.3
 0.5 -0.2 0.3
 0.5 -0.1 0.3
 0.5 0 0.3
 0.5 0.1 0.3
 0.5 0.2 0.3
 0.5 0.3 0.3
 0.5 0.4 0.3
 0.5 -0.4 0.4
 0.5 -0.3 0.4
 0.5 -0.2 0.4
 0.5 -0.1 0.4
 0.5 0 0.4
 0.5 0.1 0.4
 0.5 0.2 0.4
 0.5 0.3 0.4
 0.5 0.4 0.4

CELLS 600 3000
 4 0 1 12 11
 4 1 2 13 12
 4 2 3 14 13
 4 3 4 15 14
 4 4 5 16 15
 4 5 6 17 16
 4 6 7 18 17
 4 7 8 19 18
 4 8 9 20 19
 4 9 10 21 20
 4 11 12 23 22
 4 12 13 24 23
 4 13 14 25 24
 4 14 15 26 25
 4 15 16 27 26
 4 16 17 28 27
 4 17 18 29 28
 4 18 19 30 29
 4 19 20 31 30
 4 20 21 32 31
 4 22 23 34 33
 4 23 24 35 34
 4 24 25 36 35
 4 25 26 37 36
 4 26 27 38 37
 4 27 28 39 38
 4 28 29 40 39
 4 29 30 41 40
 4 30 31 42 41
 4 31 32 43 42
 4 33 34 45 44
 4 34 35 46 45
 4 35 36 47 46
 4 36 37 48 47
 4 37 38 49 48
 4 38 39 50 49
 4 39 40 51 50
 4 40 41 52 51
 4 41 42 53 52
 4 42 43 54 53
 4 44 45 56 55
 4 45 46 57 56
 4 46 47 58 57
 4 47 48 59 58
 4 48 49 60 59
 4 49 50 61 60
 4 50 51 62 61
 4 51 52 63 62
 4 52 53 64 63
 4 53 54 65 64
 4 55 56 67 66
 4 56 57 68 67
 4 57 58 69 68
 4 58 59 70 69
 4 59 60 71 70
 4 60 61 72 71
 4 61 62 73 72
 4 62 63 74 73
 4 63 64 75 74
 4 64 65 76 75
 4 66 67 78 77
 4 67 68 79 78
 4 68 69 80 79
 4 69 70 81 80
 4 70 71 82 81
 4 71 72 83 82
 4 72 73 84 83
 4 73 74 85 84
 4 74 75 86 85
 4 75 76 87 86
 4 77 78 89 88
 4 78 79 90 89
 4 79 80 91 90
 4 80 81 92 91
 4 81 82 93 92
 4 82 83 94 93
 4 83 84 95 94
 4 84 85 96 95
 4 85 86 97 96
 4 86 87 98 97
 4 88 89 100 99
 4 89 90 101 100
 4 90 91 102 101
 4 91 92 103 102
 4 92 93 104 103
 4 93 94 105 104
 4 94 95 106 105
 4 95 96 107 106
 4 96 97 108 107
 4 97 98 109 108
 4 99 100 111 110
 4 100 101 112 111
 4 101 102 113 112
 4 102 103 114 113
[...]
CELL_DATA 600
FIELD DOMAIN 2
SurfaceElement_HEAT_FLUX_q 1 600 FLOAT
 0.937647
 0.939466
 0.932403
 0.930528
 0.92687
 0.926019
 0.930741
 0.935409
 0.938783
 0.939503
 0.936756
 0.935247
 0.927373
 0.931118
 0.929686
 0.929695
 0.929845
 0.935284
 0.939551
 0.94154
 0.936516
 0.941831
 0.929218
 0.926846
 0.928909
 0.93153
 0.928247
 0.933364
 0.941876
 0.938429
 0.942797
 0.937877
 0.928357
 0.928931
 0.925918
 0.929814
 0.936092
 0.937075
 0.936278
 0.941342
 0.943443
 0.93588
 0.929659
 0.930241
 0.925143
 0.932946
 0.925817
 0.934577
 0.936156
 0.941037
 0.941985
 0.927965
 0.94042
 0.934515
 0.926884
 0.925606
 0.927733
 0.928187
 0.941174
 0.9396
 0.938092
 0.938528
 0.929786
 0.930374
 0.924973
 0.928559
 0.933559
 0.933719
 0.937724
 0.944887
 0.943136
 0.930259
 0.935159
 0.928979
 0.930332
 0.928066
 0.922253
 0.928876
 0.934139
 0.94617
 0.937759
 0.934229
 0.93369
 0.92523
 0.928528
 0.930437
 0.926455
 0.935622
 0.93112
 0.9398
 0.938763
 0.937659
 0.930779
 0.922219
 0.929468
 0.929274
 0.928407
 0.936398
 0.932991
 0.93793
 0.940726
 0.940209
 0.928589
 0.929251
 0.934426
 0.921551
 0.931485
 0.932933
 0.933036
 0.940989
 0.944188
 0.937413
 0.933858
 0.933608
 0.93157
 0.931612
 0.93206
 0.929283
 0.930153
 0.937975
 0.94139
 0.932944
 0.939211
 0.929313
 0.929694
 0.935622
 0.934685
 0.932547
 0.936612
 0.942384
 0.937373
 0.93672
 0.933013
 0.932059
 0.92892
 0.931093
 0.931943
 0.935131
 0.935936
 0.943349
 0.939672
 0.935498
 0.931977
 0.925639
 0.926207
 0.924741
 0.930018
 0.942059
 0.926819
 0.937256
 0.941589
 0.938842
 0.929052
 0.932956
 0.924479
 0.927263
 0.925752
 0.931308
 0.928775
 0.940701
 0.946692
 0.934834
 0.930921
 0.927909
 0.928235
 0.926304
 0.928598
 0.939537
 0.942214
 0.943244
 0.935714
 0.931767
 0.934585
 0.930441
 0.929016
 0.931751
 0.929709
 0.936493
 0.934103
 0.937618
 0.941936
 0.933202
 0.937552
 0.935294
 0.931317
 0.929049
 0.927847
 0.934944
 0.935991
 0.944761
 0.941675
 0.9383
 0.935365
 0.932059
 0.927459
 0.929809
 0.919013
 0.931916
 0.940046
 0.941761
 0
 0
 0
 0
 0
 0
 0
 0
 0
 0
 0
 0
 0
 0
 0
 0
 0
 0
 0
 0
 0
 0
 0
 0
 0
 0
 0
 0
 0
 0
 0
 0
 0
 0
 0
 0
 0
 0
 0
 0
 0
 0
 0
 0
 0
 0
 0
 0
 0
 0
 0
 0
 0
 0
 0
 0
 0
 0
 0
 0
 0
 0
 0
 0
 0
 0
 0
 0
 0
 0
 0
 0
 0
 0
 0
 0
 0
 0
 0
 0
 0
 0
 0
 0
 0
 0
 0
 0
 0
 0
 0
 0
 0
 0
 0
 0
 0
 0
 0
 0
 0
 0
 0
 0
 0
 0
 0
 0
 0
 0
 0
 0
 0
 0
 0
 0
 0
 0
 0
 0
 0
 0
 0
 0
 0
 0
 0
 0
 0
 0
 0
 0
 0
 0
 0
 0
 0
 0
 0
 0
 0
 0
 0
 0
 0
 0
 0
 0
 0
 0
 0
 0
 0
 0
 0
 0
 0
 0
 0
 0
 0
 0
 0
 0
 0
 0
 0
 0
 0
 0
 0
 0
 0
 0
 0
 0
 0
 0
 0
 0
 0
 0
 0
 0
 0
 0
 0
 0
 0
 0
 0
 0
 0
 0
 0
 0
 0
 0
 0
 0
 -0.985865
 -0.996471
 -0.988784
 -0.958813
 -0.97183
 -1.01808
 -1.02823
 -0.999857
 -0.977332
 -0.955384
 -0.928769
 -0.953569
 -0.964439
 -0.964488
 -0.952888
 -0.950064
 -0.984897
 -0.989379
 -0.931417
 -0.9637
 -0.980652
 -0.935704
 -0.904813
 -0.942301
 -0.94861
 -0.905607
 -0.928702
 -0.980438
 -1.01978
 -0.89907
 -0.884679
 -0.895617
 -0.84307
 -0.897381
 -0.986812
 -0.907479
 -0.876959
 -0.879676
 -0.946384
 -0.904177
 -0.897679
 -0.874619
 -0.866666
 -0.853932
 -0.877891
 -0.902903
 -0.842209
 -0.854549
 -0.934459
 -0.893098
 -0.968051
 -0.895603
 -0.898417
 -0.901769
 -0.874878
 -0.838501
 -0.880982
 -0.906415
 -0.836204
 -0.916336
 -0.930688
 -0.904309
 -0.853064
 -0.868984
 -0.908255
 -0.933853
 -0.878557
 -0.870379
 -0.898454
 -0.84833
 -0.968468
 -0.956003
 -0.907143
 -0.933115
 -0.879033
 -0.903369
 -0.958798
 -0.943677
 -0.905759
 -0.899477
 -0.978359
 -0.956899
 -0.940093
 -0.970242
 -0.980414
 -0.972602
 -1.02816
 -0.926992
 -0.953978
 -0.968719
 -1.0208
 -0.965308
 -1.0392
 -1.03042
 -0.973027
 -0.95402
 -1.00783
 -0.974883
 -0.964067
 -0.980421
 -1.01777
 -0.931127
 -1.01936
 -0.981886
 -1.00725
 -0.949965
 -1.00436
 -1.02234
 -0.968814
 -1.01692
 -0.952736
 -0.871325
 -0.932565
 -0.937996
 -1.02665
 -0.958753
 -0.910581
 -0.931139
 -0.948019
 -1.00229
 -0.88865
 -0.898833
 -0.934925
 -0.874362
 -0.901656
 -0.933215
 -0.980798
 -0.888222
 -0.89537
 -0.958936
 -0.926779
 -0.901964
 -0.952963
 -0.942653
 -0.87806
 -0.901656
 -0.909096
 -0.893782
 -0.957676
 -0.967829
 -0.829825
 -0.896952
 -0.895682
 -0.881112
 -0.949513
 -0.882382
 -0.887198
 -0.83689
 -0.876483
 -0.898196
 -0.895286
 -0.950375
 -0.922727
 -0.893482
 -0.969034
 -0.876146
 -0.954451
 -0.884126
 -0.8778
 -0.967255
 -0.887362
 -0.928906
 -0.880416
 -0.932078
 -0.900954
 -0.865641
 -0.932401
 -0.925359
 -0.921272
 -0.88337
 -0.922719
 -0.869238
 -0.947891
 -0.930422
 -0.927394
 -0.974086
 -0.918504
 -0.897302
 -0.952681
 -0.930083
 -1.00035
 -0.95667
 -0.930404
 -1.00763
 -1.00157
 -0.970665
 -0.958519
 -0.917172
 -0.930068
 -0.982258
 -0.94203
 -0.999045
 -0.932513
 -0.950517
 -0.987274
 -0.959828
 -0.955472
 -1.01099
 -0.992288
 -0.93802

SurfaceElement_HEAT_Q 1 600 FLOAT 
 0.00937647
 0.00939466
 0.00932403
 0.00930528
 0.0092687
 0.00926019
 0.00930741
 0.00935409
 0.00938783
 0.00939503
 0.00936756
 0.00935247
 0.00927373
 0.00931118
 0.00929686
 0.00929695
 0.00929845
 0.00935284
 0.00939551
 0.0094154
 0.00936516
 0.00941831
 0.00929218
 0.00926846
 0.00928909
 0.0093153
 0.00928247
 0.00933364
 0.00941876
 0.00938429
 0.00942797
 0.00937877
 0.00928357
 0.00928931
 0.00925918
 0.00929814
 0.00936092
 0.00937075
 0.00936278
 0.00941342
 0.00943443
 0.0093588
 0.00929659
 0.00930241
 0.00925143
 0.00932946
 0.00925817
 0.00934577
 0.00936156
 0.00941037
 0.00941985
 0.00927965
 0.0094042
 0.00934515
 0.00926884
 0.00925606
 0.00927733
 0.00928187
 0.00941174
 0.009396
 0.00938092
 0.00938528
 0.00929786
 0.00930374
 0.00924973
 0.00928559
 0.00933559
 0.00933719
 0.00937724
 0.00944887
 0.00943136
 0.00930259
 0.00935159
 0.00928979
 0.00930332
 0.00928066
 0.00922253
 0.00928876
 0.00934139
 0.0094617
 0.00937759
 0.00934229
 0.0093369
 0.0092523
 0.00928528
 0.00930437
 0.00926455
 0.00935622
 0.0093112
 0.009398
 0.00938763
 0.00937659
 0.00930779
 0.00922219
 0.00929468
 0.00929274
 0.00928407
 0.00936398
 0.00932991
 0.0093793
 0.00940726
 0.00940209
 0.00928589
 0.00929251
 0.00934426
 0.00921551
 0.00931485
 0.00932933
 0.00933036
 0.00940989
 0.00944188
 0.00937413
 0.00933858
 0.00933608
 0.0093157
 0.00931612
 0.0093206
 0.00929283
 0.00930153
 0.00937975
 0.0094139
 0.00932944
 0.00939211
 0.00929313
 0.00929694
 0.00935622
 0.00934685
 0.00932547
 0.00936612
 0.00942384
 0.00937373
 0.0093672
 0.00933013
 0.00932059
 0.0092892
 0.00931093
 0.00931943
 0.00935131
 0.00935936
 0.00943349
 0.00939672
 0.00935498
 0.00931977
 0.00925639
 0.00926207
 0.00924741
 0.00930018
 0.00942059
 0.00926819
 0.00937256
 0.00941589
 0.00938842
 0.00929052
 0.00932956
 0.00924479
 0.00927263
 0.00925752
 0.00931308
 0.00928775
 0.00940701
 0.00946692
 0.00934834
 0.00930921
 0.00927909
 0.00928235
 0.00926304
 0.00928598
 0.00939537
 0.00942214
 0.00943244
 0.00935714
 0.00931767
 0.00934585
 0.00930441
 0.00929016
 0.00931751
 0.00929709
 0.00936493
 0.00934103
 0.00937618
 0.00941936
 0.00933202
 0.00937552
 0.00935294
 0.00931317
 0.00929049
 0.00927847
 0.00934944
 0.00935991
 0.00944761
 0.00941675
 0.009383
 0.00935365
 0.00932059
 0.00927459
 0.00929809
 0.00919013
 0.00931916
 0.00940046
 0.00941761
 0
 0
 0
 0
 0
 0
 0
 0
 0
 0
 0
 0
 0
 0
 0
 0
 0
 0
 0
 0
 0
 0
 0
 0
 0
 0
 0
 0
 0
 0
 0
 0
 0
 0
 0
 0
 0
 0
 0
 0
 0
 0
 0
 0
 0
 0
 0
 0
 0
 0
 0
 0
 0
 0
 0
 0
 0
 0
 0
 0
 0
 0
 0
 0
 0
 0
 0
 0
 0
 0
 0
 0
 0
 0
 0
 0
 0
 0
 0
 0
 0
 0
 0
 0
 0
 0
 0
 0
 0
 0
 0
 0
 0
 0
 0
 0
 0
 0
 0
 0
 0
 0
 0
 0
 0
 0
 0
 0
 0
 0
 0
 0
 0
 0
 0
 0
 0
 0
 0
 0
 0
 0
 0
 0
 0
 0
 0
 0
 0
 0
 0
 0
 0
 0
 0
 0
 0
 0
 0
 0
 0
 0
 0
 0
 0
 0
 0
 0
 0
 0
 0
 0
 0
 0
 0
 0
 0
 0
 0
 0
 0
 0
 0
 0
 0
 0
 0
 0
 0
 0
 0
 0
 0
 0
 0
 0
 0
 0
 0
 0
 0
 0
 0
 0
 0
 0
 0
 0
 0
 0
 0
 0
 0
 0
 0
 0
 0
 0
 0
 0
 -0.00985865
 -0.00996471
 -0.00988784
 -0.00958813
 -0.0097183
 -0.0101808
 -0.0102823
 -0.00999857
 -0.00977332
 -0.00955384
 -0.00928769
 -0.00953569
 -0.00964439
 -0.00964488
 -0.00952888
 -0.00950064
 -0.00984897
 -0.00989379
 -0.00931417
 -0.009637
 -0.00980652
 -0.00935704
 -0.00904813
 -0.00942301
 -0.0094861
 -0.00905607
 -0.00928702
 -0.00980438
 -0.0101978
 -0.0089907
 -0.00884679
 -0.00895617
 -0.0084307
 -0.00897381
 -0.00986812
 -0.00907479
 -0.00876959
 -0.00879676
 -0.00946384
 -0.00904177
 -0.00897679
 -0.00874619
 -0.00866666
 -0.00853932
 -0.00877891
 -0.00902903
 -0.00842209
 -0.00854549
 -0.00934459
 -0.00893098
 -0.00968051
 -0.00895603
 -0.00898417
 -0.00901769
 -0.00874878
 -0.00838501
 -0.00880982
 -0.00906415
 -0.00836204
 -0.00916336
 -0.00930688
 -0.00904309
 -0.00853064
 -0.00868984
 -0.00908255
 -0.00933853
 -0.00878557
 -0.00870379
 -0.00898454
 -0.0084833
 -0.00968468
 -0.00956003
 -0.00907143
 -0.00933115
 -0.00879033
 -0.00903369
 -0.00958798
 -0.00943677
 -0.00905759
 -0.00899477
 -0.00978359
 -0.00956899
 -0.00940093
 -0.00970242
 -0.00980414
 -0.00972602
 -0.0102816
 -0.00926992
 -0.00953978
 -0.00968719
 -0.010208
 -0.00965308
 -0.010392
 -0.0103042
 -0.00973027
 -0.0095402
 -0.0100783
 -0.00974883
 -0.00964067
 -0.00980421
 -0.0101777
 -0.00931127
 -0.0101936
 -0.00981886
 -0.0100725
 -0.00949965
 -0.0100436
 -0.0102234
 -0.00968814
 -0.0101692
 -0.00952736
 -0.00871325
 -0.00932565
 -0.00937996
 -0.0102665
 -0.00958753
 -0.00910581
 -0.00931139
 -0.00948019
 -0.0100229
 -0.0088865
 -0.00898833
 -0.00934925
 -0.00874362
 -0.00901656
 -0.00933215
 -0.00980798
 -0.00888222
 -0.0089537
 -0.00958936
 -0.00926779
 -0.00901964
 -0.00952963
 -0.00942653
 -0.0087806
 -0.00901656
 -0.00909096
 -0.00893782
 -0.00957676
 -0.00967829
 -0.00829825
 -0.00896952
 -0.00895682
 -0.00881112
 -0.00949513
 -0.00882382
 -0.00887198
 -0.0083689
 -0.00876483
 -0.00898196
 -0.00895286
 -0.00950375
 -0.00922727
 -0.00893482
 -0.00969034
 -0.00876146
 -0.00954451
 -0.00884126
 -0.008778
 -0.00967255
 -0.00887362
 -0.00928906
 -0.00880416
 -0.00932078
 -0.00900954
 -0.00865641
 -0.00932401
 -0.00925359
 -0.00921272
 -0.0088337
 -0.00922719
 -0.00869238
 -0.00947891
 -0.00930422
 -0.00927394
 -0.00974086
 -0.00918504
 -0.00897302
 -0.00952681
 -0.00930083
 -0.0100035
 -0.0095667
 -0.00930404
 -0.0100763
 -0.0100157
 -0.00970665
 -0.00958519
 -0.00917172
 -0.00930068
 -0.00982258
 -0.0094203
 -0.00999045
 -0.00932513
 -0.00950517
 -0.00987274
 -0.00959828
 -0.00955472
 -0.0101099
 -0.00992288
 -0.0093802
