# vtk DataFile Version 2.0
Three-D cube surface heat flux and Q display
ASCII
DATASET UNSTRUCTURED_GRID

POINTS 602 FLOAT 
 -0.5 -0.5 -0.5
 -0.4 -0.5 -0.5
 -0.3 -0.5 -0.5
 -0.2 -0.5 -0.5
 -0.1 -0.5 -0.5
 0 -0.5 -0.5
 0.1 -0.5 -0.5
 0.2 -0.5 -0.5
 0.3 -0.5 -0.5
 0.4 -0.5 -0.5
 0.5 -0.5 -0.5
 -0.5 -0.4 -0.5
 -0.4 -0.4 -0.5
 -0.3 -0.4 -0.5
 -0.2 -0.4 -0.5
 -0.1 -0.4 -0.5
 0 -0.4 -0.5
 0.1 -0.4 -0.5
 0.2 -0.4 -0.5
 0.3 -0.4 -0.5
 0.4 -0.4 -0.5
 0.5 -0.4 -0.5
 -0.5 -0.3 -0.5
 -0.4 -0.3 -0.5
 -0.3 -0.3 -0.5
 -0.2 -0.3 -0.5
 -0.1 -0.3 -0.5
 0 -0.3 -0.5
 0.1 -0.3 -0.5
 0.2 -0.3 -0.5
 0.3 -0.3 -0.5
 0.4 -0.3 -0.5
 0.5 -0.3 -0.5
 -0.5 -0.2 -0.5
 -0.4 -0.2 -0.5
 -0.3 -0.2 -0.5
 -0.2 -0.2 -0.5
 -0.1 -0.2 -0.5
 0 -0.2 -0.5
 0.1 -0.2 -0.5
 0.2 -0.2 -0.5
 0.3 -0.2 -0.5
 0.4 -0.2 -0.5
 0.5 -0.2 -0.5
 -0.5 -0.1 -0.5
 -0.4 -0.1 -0.5
 -0.3 -0.1 -0.5
 -0.2 -0.1 -0.5
 -0.1 -0.1 -0.5
 0 -0.1 -0.5
 0.1 -0.1 -0.5
 0.2 -0.1 -0.5
 0.3 -0.1 -0.5
 0.4 -0.1 -0.5
 0.5 -0.1 -0.5
 -0.5 0 -0.5
 -0.4 0 -0.5
 -0.3 0 -0.5
 -0.2 0 -0.5
 -0.1 0 -0.5
 0 0 -0.5
 0.1 0 -0.5
 0.2 0 -0.5
 0.3 0 -0.5
 0.4 0 -0.5
 0.5 0 -0.5
 -0.5 0.1 -0.5
 -0.4 0.1 -0.5
 -0.3 0.1 -0.5
 -0.2 0.1 -0.5
 -0.1 0.1 -0.5
 0 0.1 -0.5
 0.1 0.1 -0.5
 0.2 0.1 -0.5
 0.3 0.1 -0.5
 0.4 0.1 -0.5
 0.5 0.1 -0.5
 -0.5 0.2 -0.5
 -0.4 0.2 -0.5
 -0.3 0.2 -0.5
 -0.2 0.2 -0.5
 -0.1 0.2 -0.5
 0 0.2 -0.5
 0.1 0.2 -0.5
 0.2 0.2 -0.5
 0.3 0.2 -0.5
 0.4 0.2 -0.5
 0.5 0.2 -0.5
 -0.5 0.3 -0.5
 -0.4 0.3 -0.5
 -0.3 0.3 -0.5
 -0.2 0.3 -0.5
 -0.1 0.3 -0.5
 0 0.3 -0.5
 0.1 0.3 -0.5
 0.2 0.3 -0.5
 0.3 0.3 -0.5
 0.4 0.3 -0.5
 0.5 0.3 -0.5
 -0.5 0.4 -0.5
 -0.4 0.4 -0.5
 -0.3 0.4 -0.5
 -0.2 0.4 -0.5
 -0.1 0.4 -0.5
 0 0.4 -0.5
 0.1 0.4 -0.5
 0.2 0.4 -0.5
 0.3 0.4 -0.5
 0.4 0.4 -0.5
 0.5 0.4 -0.5
 -0.5 0.5 -0.5
 -0.4 0.5 -0.5
 -0.3 0.5 -0.5
 -0.2 0.5 -0.5
 -0.1 0.5 -0.5
 0 0.5 -0.5
 0.1 0.5 -0.5
 0.2 0.5 -0.5
 0.3 0.5 -0.5
 0.4 0.5 -0.5
 0.5 0.5 -0.5
 -0.5 -0.5 0.5
 -0.4 -0.5 0.5
 -0.3 -0.5 0.5
 -0.2 -0.5 0.5
 -0.1 -0.5 0.5
 0 -0.5 0.5
 0.1 -0.5 0.5
 0.2 -0.5 0.5
 0.3 -0.5 0.5
 0.4 -0.5 0.5
 0.5 -0.5 0.5
 -0.5 -0.4 0.5
 -0.4 -0.4 0.5
 -0.3 -0.4 0.5
 -0.2 -0.4 0.5
 -0.1 -0.4 0.5
 0 -0.4 0.5
 0.1 -0.4 0.5
 0.2 -0.4 0.5
 0.3 -0.4 0.5
 0.4 -0.4 0.5
 0.5 -0.4 0.5
 -0.5 -0.3 0.5
 -0.4 -0.3 0.5
 -0.3 -0.3 0.5
 -0.2 -0.3 0.5
 -0.1 -0.3 0.5
 0 -0.3 0.5
 0.1 -0.3 0.5
 0.2 -0.3 0.5
 0.3 -0.3 0.5
 0.4 -0.3 0.5
 0.5 -0.3 0.5
 -0.5 -0.2 0.5
 -0.4 -0.2 0.5
 -0.3 -0.2 0.5
 -0.2 -0.2 0.5
 -0.1 -0.2 0.5
 0 -0.2 0.5
 0.1 -0.2 0.5
 0.2 -0.2 0.5
 0.3 -0.2 0.5
 0.4 -0.2 0.5
 0.5 -0.2 0.5
 -0.5 -0.1 0.5
 -0.4 -0.1 0.5
 -0.3 -0.1 0.5
 -0.2 -0.1 0.5
 -0.1 -0.1 0.5
 0 -0.1 0.5
 0.1 -0.1 0.5
 0.2 -0.1 0.5
 0.3 -0.1 0.5
 0.4 -0.1 0.5
 0.5 -0.1 0.5
 -0.5 0 0.5
 -0.4 0 0.5
 -0.3 0 0.5
 -0.2 0 0.5
 -0.1 0 0.5
 0 0 0.5
 0.1 0 0.5
 0.2 0 0.5
 0.3 0 0.5
 0.4 0 0.5
 0.5 0 0.5
 -0.5 0.1 0.5
 -0.4 0.1 0.5
 -0.3 0.1 0.5
 -0.2 0.1 0.5
 -0.1 0.1 0.5
 0 0.1 0.5
 0.1 0.1 0.5
 0.2 0.1 0.5
 0.3 0.1 0.5
 0.4 0.1 0.5
 0.5 0.1 0.5
 -0.5 0.2 0.5
 -0.4 0.2 0.5
 -0.3 0.2 0.5
 -0.2 0.2 0.5
 -0.1 0.2 0.5
 0 0.2 0.5
 0.1 0.2 0.5
 0.2 0.2 0.5
 0.3 0.2 0.5
 0.4 0.2 0.5
 0.5 0.2 0.5
 -0.5 0.3 0.5
 -0.4 0.3 0.5
 -0.3 0.3 0.5
 -0.2 0.3 0.5
 -0.1 0.3 0.5
 0 0.3 0.5
 0.1 0.3 0.5
 0.2 0.3 0.5
 0.3 0.3 0.5
 0.4 0.3 0.5
 0.5 0.3 0.5
 -0.5 0.4 0.5
 -0.4 0.4 0.5
 -0.3 0.4 0.5
 -0.2 0.4 0.5
 -0.1 0.4 0.5
 0 0.4 0.5
 0.1 0.4 0.5
 0.2 0.4 0.5
 0.3 0.4 0.5
 0.4 0.4 0.5
 0.5 0.4 0.5
 -0.5 0.5 0.5
 -0.4 0.5 0.5
 -0.3 0.5 0.5
 -0.2 0.5 0.5
 -0.1 0.5 0.5
 0 0.5 0.5
 0.1 0.5 0.5
 0.2 0.5 0.5
 0.3 0.5 0.5
 0.4 0.5 0.5
 0.5 0.5 0.5
 -0.5 0.5 -0.4
 -0.4 0.5 -0.4
 -0.3 0.5 -0.4
 -0.2 0.5 -0.4
 -0.1 0.5 -0.4
 0 0.5 -0.4
 0.1 0.5 -0.4
 0.2 0.5 -0.4
 0.3 0.5 -0.4
 0.4 0.5 -0.4
 0.5 0.5 -0.4
 -0.5 0.5 -0.3
 -0.4 0.5 -0.3
 -0.3 0.5 -0.3
 -0.2 0.5 -0.3
 -0.1 0.5 -0.3
 0 0.5 -0.3
 0.1 0.5 -0.3
 0.2 0.5 -0.3
 0.3 0.5 -0.3
 0.4 0.5 -0.3
 0.5 0.5 -0.3
 -0.5 0.5 -0.2
 -0.4 0.5 -0.2
 -0.3 0.5 -0.2
 -0.2 0.5 -0.2
 -0.1 0.5 -0.2
 0 0.5 -0.2
 0.1 0.5 -0.2
 0.2 0.5 -0.2
 0.3 0.5 -0.2
 0.4 0.5 -0.2
 0.5 0.5 -0.2
 -0.5 0.5 -0.1
 -0.4 0.5 -0.1
 -0.3 0.5 -0.1
 -0.2 0.5 -0.1
 -0.1 0.5 -0.1
 0 0.5 -0.1
 0.1 0.5 -0.1
 0.2 0.5 -0.1
 0.3 0.5 -0.1
 0.4 0.5 -0.1
 0.5 0.5 -0.1
 -0.5 0.5 0
 -0.4 0.5 0
 -0.3 0.5 0
 -0.2 0.5 0
 -0.1 0.5 0
 0 0.5 0
 0.1 0.5 0
 0.2 0.5 0
 0.3 0.5 0
 0.4 0.5 0
 0.5 0.5 0
 -0.5 0.5 0.1
 -0.4 0.5 0.1
 -0.3 0.5 0.1
 -0.2 0.5 0.1
 -0.1 0.5 0.1
 0 0.5 0.1
 0.1 0.5 0.1
 0.2 0.5 0.1
 0.3 0.5 0.1
 0.4 0.5 0.1
 0.5 0.5 0.1
 -0.5 0.5 0.2
 -0.4 0.5 0.2
 -0.3 0.5 0.2
 -0.2 0.5 0.2
 -0.1 0.5 0.2
 0 0.5 0.2
 0.1 0.5 0.2
 0.2 0.5 0.2
 0.3 0.5 0.2
 0.4 0.5 0.2
 0.5 0.5 0.2
 -0.5 0.5 0.3
 -0.4 0.5 0.3
 -0.3 0.5 0.3
 -0.2 0.5 0.3
 -0.1 0.5 0.3
 0 0.5 0.3
 0.1 0.5 0.3
 0.2 0.5 0.3
 0.3 0.5 0.3
 0.4 0.5 0.3
 0.5 0.5 0.3
 -0.5 0.5 0.4
 -0.4 0.5 0.4
 -0.3 0.5 0.4
 -0.2 0.5 0.4
 -0.1 0.5 0.4
 0 0.5 0.4
 0.1 0.5 0.4
 0.2 0.5 0.4
 0.3 0.5 0.4
 0.4 0.5 0.4
 0.5 0.5 0.4
 -0.5 -0.5 -0.4
 -0.4 -0.5 -0.4
 -0.3 -0.5 -0.4
 -0.2 -0.5 -0.4
 -0.1 -0.5 -0.4
 0 -0.5 -0.4
 0.1 -0.5 -0.4
 0.2 -0.5 -0.4
 0.3 -0.5 -0.4
 0.4 -0.5 -0.4
 0.5 -0.5 -0.4
 -0.5 -0.5 -0.3
 -0.4 -0.5 -0.3
 -0.3 -0.5 -0.3
 -0.2 -0.5 -0.3
 -0.1 -0.5 -0.3
 0 -0.5 -0.3
 0.1 -0.5 -0.3
 0.2 -0.5 -0.3
 0.3 -0.5 -0.3
 0.4 -0.5 -0.3
 0.5 -0.5 -0.3
 -0.5 -0.5 -0.2
 -0.4 -0.5 -0.2
 -0.3 -0.5 -0.2
 -0.2 -0.5 -0.2
 -0.1 -0.5 -0.2
 0 -0.5 -0.2
 0.1 -0.5 -0.2
 0.2 -0.5 -0.2
 0.3 -0.5 -0.2
 0.4 -0.5 -0.2
 0.5 -0.5 -0.2
 -0.5 -0.5 -0.1
 -0.4 -0.5 -0.1
 -0.3 -0.5 -0.1
 -0.2 -0.5 -0.1
 -0.1 -0.5 -0.1
 0 -0.5 -0.1
 0.1 -0.5 -0.1
 0.2 -0.5 -0.1
 0.3 -0.5 -0.1
 0.4 -0.5 -0.1
 0.5 -0.5 -0.1
 -0.5 -0.5 0
 -0.4 -0.5 0
 -0.3 -0.5 0
 -0.2 -0.5 0
 -0.1 -0.5 0
 0 -0.5 0
 0.1 -0.5 0
 0.2 -0.5 0
 0.3 -0.5 0
 0.4 -0.5 0
 0.5 -0.5 0
 -0.5 -0.5 0.1
 -0.4 -0.5 0.1
 -0.3 -0.5 0.1
 -0.2 -0.5 0.1
 -0.1 -0.5 0.1
 0 -0.5 0.1
 0.1 -0.5 0.1
 0.2 -0.5 0.1
 0.3 -0.5 0.1
 0.4 -0.5 0.1
 0.5 -0.5 0.1
 -0.5 -0.5 0.2
 -0.4 -0.5 0.2
 -0.3 -0.5 0.2
 -0.2 -0.5 0.2
 -0.1 -0.5 0.2
 0 -0.5 0.2
 0.1 -0.5 0.2
 0.2 -0.5 0.2
 0.3 -0.5 0.2
 0.4 -0.5 0.2
 0.5 -0.5 0.2
 -0.5 -0.5 0.3
 -0.4 -0.5 0.3
 -0.3 -0.5 0.3
 -0.2 -0.5 0.3
 -0.1 -0.5 0.3
 0 -0.5 0.3
 0.1 -0.5 0.3
 0.2 -0.5 0.3
 0.3 -0.5 0.3
 0.4 -0.5 0.3
 0.5 -0.5 0.3
 -0.5 -0.5 0.4
 -0.4 -0.5 0.4
 -0.3 -0.5 0.4
 -0.2 -0.5 0.4
 -0.1 -0.5 0.4
 0 -0.5 0.4
 0.1 -0.5 0.4
 0.2 -0.5 0.4
 0.3 -0.5 0.4
 0.4 -0.5 0.4
 0.5 -0.5 0.4
 -0.5 -0.4 -0.4
 -0.5 -0.3 -0.4
 -0.5 -0.2 -0.4
 -0.5 -0.1 -0.4
 -0.5 0 -0.4
 -0.5 0.1 -0.4
 -0.5 0.2 -0.4
 -0.5 0.3 -0.4
 -0.5 0.4 -0.4
 -0.5 -0.4 -0.3
 -0.5 -0.3 -0.3
 -0.5 -0.2 -0.3
 -0.5 -0.1 -0.3
 -0.5 0 -0.3
 -0.5 0.1 -0.3
 -0.5 0.2 -0.3
 -0.5 0.3 -0.3
 -0.5 0.4 -0.3
 -0.5 -0.4 -0.2
 -0.5 -0.3 -0.2
 -0.5 -0.2 -0.2
 -0.5 -0.1 -0.2
 -0.5 0 -0.2
 -0.5 0.1 -0.2
 -0.5 0.2 -0.2
 -0.5 0.3 -0.2
 -0.5 0.4 -0.2
 -0.5 -0.4 -0.1
 -0.5 -0.3 -0.1
 -0.5 -0.2 -0.1
 -0.5 -0.1 -0.1
 -0.5 0 -0.1
 -0.5 0.1 -0.1
 -0.5 0.2 -0.1
 -0.5 0.3 -0.1
 -0.5 0.4 -0.1
 -0.5 -0.4 0
 -0.5 -0.3 0
 -0.5 -0.2 0
 -0.5 -0.1 0
 -0.5 0 0
 -0.5 0.1 0
 -0.5 0.2 0
 -0.5 0.3 0
 -0.5 0.4 0
 -0.5 -0.4 0.1
 -0.5 -0.3 0.1
 -0.5 -0.2 0.1
 -0.5 -0.1 0.1
 -0.5 0 0.1
 -0.5 0.1 0.1
 -0.5 0.2 0.1
 -0.5 0.3 0.1
 -0.5 0.4 0.1
 -0.5 -0.4 0.2
 -0.5 -0.3 0.2
 -0.5 -0.2 0.2
 -0.5 -0.1 0.2
 -0.5 0 0.2
 -0.5 0.1 0.2
 -0.5 0.2 0.2
 -0.5 0.3 0.2
 -0.5 0.4 0.2
 -0.5 -0.4 0.3
 -0.5 -0.3 0.3
 -0.5 -0.2 0.3
 -0.5 -0.1 0.3
 -0.5 0 0.3
 -0.5 0.1 0.3
 -0.5 0.2 0.3
 -0.5 0.3 0.3
 -0.5 0.4 0.3
 -0.5 -0.4 0.4
 -0.5 -0.3 0.4
 -0.5 -0.2 0.4
 -0.5 -0.1 0.4
 -0.5 0 0.4
 -0.5 0.1 0.4
 -0.5 0.2 0.4
 -0.5 0.3 0.4
 -0.5 0.4 0.4
 0.5 -0.4 -0.4
 0.5 -0.3 -0.4
 0.5 -0.2 -0.4
 0.5 -0.1 -0.4
 0.5 0 -0.4
 0.5 0.1 -0.4
 0.5 0.2 -0.4
 0.5 0.3 -0.4
 0.5 0.4 -0.4
 0.5 -0.4 -0.3
 0.5 -0.3 -0.3
 0.5 -0.2 -0.3
 0.5 -0.1 -0.3
 0.5 0 -0.3
 0.5 0.1 -0.3
 0.5 0.2 -0.3
 0.5 0.3 -0.3
 0.5 0.4 -0.3
 0.5 -0.4 -0.2
 0.5 -0.3 -0.2
 0.5 -0.2 -0.2
 0.5 -0.1 -0.2
 0.5 0 -0.2
 0.5 0.1 -0.2
 0.5 0.2 -0.2
 0.5 0.3 -0.2
 0.5 0.4 -0.2
 0.5 -0.4 -0.1
 0.5 -0.3 -0.1
 0.5 -0.2 -0.1
 0.5 -0.1 -0.1
 0.5 0 -0.1
 0.5 0.1 -0.1
 0.5 0.2 -0.1
 0.5 0.3 -0.1
 0.5 0.4 -0.1
 0.5 -0.4 0
 0.5 -0.3 0
 0.5 -0.2 0
 0.5 -0.1 0
 0.5 0 0
 0.5 0.1 0
 0.5 0.2 0
 0.5 0.3 0
 0.5 0.4 0
 0.5 -0.4 0.1
 0.5 -0.3 0.1
 0.5 -0.2 0.1
 0.5 -0.1 0.1
 0.5 0 0.1
 0.5 0.1 0.1
 0.5 0.2 0.1
 0.5 0.3 0.1
 0.5 0.4 0.1
 0.5 -0.4 0.2
 0.5 -0.3 0.2
 0.5 -0.2 0.2
 0.5 -0.1 0.2
 0.5 0 0.2
 0.5 0.1 0.2
 0.5 0.2 0.2
 0.5 0.3 0.2
 0.5 0.4 0.2
 0.5 -0.4 0.3
 0.5 -0.3 0.3
 0.5 -0.2 0.3
 0.5 -0.1 0.3
 0.5 0 0.3
 0.5 0.1 0.3
 0.5 0.2 0.3
 0.5 0.3 0.3
 0.5 0.4 0.3
 0.5 -0.4 0.4
 0.5 -0.3 0.4
 0.5 -0.2 0.4
 0.5 -0.1 0.4
 0.5 0 0.4
 0.5 0.1 0.4
 0.5 0.2 0.4
 0.5 0.3 0.4
 0.5 0.4 0.4

CELLS 600 3000
 4 0 1 12 11
 4 1 2 13 12
 4 2 3 14 13
 4 3 4 15 14
 4 4 5 16 15
 4 5 6 17 16
 4 6 7 18 17
 4 7 8 19 18
 4 8 9 20 19
 4 9 10 21 20
 4 11 12 23 22
 4 12 13 24 23
 4 13 14 25 24
 4 14 15 26 25
 4 15 16 27 26
 4 16 17 28 27
 4 17 18 29 28
 4 18 19 30 29
 4 19 20 31 30
 4 20 21 32 31
 4 22 23 34 33
 4 23 24 35 34
 4 24 25 36 35
 4 25 26 37 36
 4 26 27 38 37
 4 27 28 39 38
 4 28 29 40 39
 4 29 30 41 40
 4 30 31 42 41
 4 31 32 43 42
 4 33 34 45 44
 4 34 35 46 45
 4 35 36 47 46
 4 36 37 48 47
 4 37 38 49 48
 4 38 39 50 49
 4 39 40 51 50
 4 40 41 52 51
 4 41 42 53 52
 4 42 43 54 53
 4 44 45 56 55
 4 45 46 57 56
 4 46 47 58 57
 4 47 48 59 58
 4 48 49 60 59
 4 49 50 61 60
 4 50 51 62 61
 4 51 52 63 62
 4 52 53 64 63
 4 53 54 65 64
 4 55 56 67 66
 4 56 57 68 67
 4 57 58 69 68
 4 58 59 70 69
 4 59 60 71 70
 4 60 61 72 71
 4 61 62 73 72
 4 62 63 74 73
 4 63 64 75 74
 4 64 65 76 75
 4 66 67 78 77
 4 67 68 79 78
 4 68 69 80 79
 4 69 70 81 80
 4 70 71 82 81
 4 71 72 83 82
 4 72 73 84 83
 4 73 74 85 84
 4 74 75 86 85
 4 75 76 87 86
 4 77 78 89 88
 4 78 79 90 89
 4 79 80 91 90
 4 80 81 92 91
 4 81 82 93 92
 4 82 83 94 93
 4 83 84 95 94
 4 84 85 96 95
 4 85 86 97 96
 4 86 87 98 97
 4 88 89 100 99
 4 89 90 101 100
 4 90 91 102 101
 4 91 92 103 102
 4 92 93 104 103
 4 93 94 105 104
 4 94 95 106 105
 4 95 96 107 106
 4 96 97 108 107
 4 97 98 109 108
 4 99 100 111 110
 4 100 101 112 111
 4 101 102 113 112
 4 102 103 114 113
[...]
CELL_DATA 600
FIELD DOMAIN 2
SurfaceElement_HEAT_FLUX_q 1 600 FLOAT
 -0.0629634
 -0.0886674
 -0.087934
 -0.1085
 -0.107488
 -0.110441
 -0.0996163
 -0.0960178
 -0.08364
 -0.0664741
 -0.0855878
 -0.0946242
 -0.122563
 -0.122497
 -0.13744
 -0.12941
 -0.131897
 -0.121478
 -0.0999888
 -0.0848838
 -0.0962215
 -0.12087
 -0.137593
 -0.155117
 -0.156758
 -0.154133
 -0.144283
 -0.133977
 -0.120784
 -0.095689
 -0.107395
 -0.120101
 -0.148763
 -0.169443
 -0.180981
 -0.177442
 -0.162636
 -0.149412
 -0.132311
 -0.099518
 -0.119181
 -0.13846
 -0.153733
 -0.179884
 -0.196454
 -0.183212
 -0.175235
 -0.157316
 -0.125937
 -0.105393
 -0.0981867
 -0.130671
 -0.156606
 -0.172754
 -0.185084
 -0.183151
 -0.182785
 -0.156182
 -0.12862
 -0.112958
 -0.109268
 -0.129131
 -0.149183
 -0.161517
 -0.170542
 -0.173803
 -0.159506
 -0.148368
 -0.123186
 -0.103486
 -0.0941505
 -0.116925
 -0.126168
 -0.152112
 -0.147224
 -0.14791
 -0.147658
 -0.136474
 -0.116588
 -0.0975405
 -0.0836753
 -0.100104
 -0.114816
 -0.135699
 -0.134933
 -0.126034
 -0.124946
 -0.116536
 -0.1071
 -0.0732893
 -0.0717135
 -0.0882033
 -0.0952362
 -0.103496
 -0.103358
 -0.107429
 -0.0984228
 -0.0973861
 -0.0849132
 -0.071101
 -0.0675393
 -0.0743085
 -0.0941507
 -0.104068
 -0.100937
 -0.121163
 -0.104132
 -0.0977001
 -0.0866162
 -0.080023
 -0.0780634
 -0.0964235
 -0.115799
 -0.136121
 -0.140651
 -0.127097
 -0.128176
 -0.113526
 -0.105375
 -0.0820703
 -0.0944987
 -0.121282
 -0.130136
 -0.141374
 -0.160938
 -0.154117
 -0.143133
 -0.134107
 -0.119934
 -0.0884028
 -0.101035
 -0.130237
 -0.147399
 -0.162449
 -0.174742
 -0.171165
 -0.164398
 -0.151241
 -0.122982
 -0.0956604
 -0.108018
 -0.13602
 -0.162365
 -0.179186
 -0.180157
 -0.189885
 -0.182787
 -0.157617
 -0.137523
 -0.103577
 -0.105651
 -0.134778
 -0.155816
 -0.177536
 -0.184424
 -0.180743
 -0.167123
 -0.156475
 -0.132267
 -0.101807
 -0.10304
 -0.130999
 -0.151676
 -0.161959
 -0.169724
 -0.174008
 -0.164244
 -0.146663
 -0.11793
 -0.0984547
 -0.0950604
 -0.119578
 -0.138144
 -0.139767
 -0.161744
 -0.15509
 -0.150411
 -0.140208
 -0.116405
 -0.095232
 -0.083932
 -0.106429
 -0.116427
 -0.129764
 -0.133107
 -0.133006
 -0.122726
 -0.118372
 -0.100906
 -0.0791862
 -0.0678524
 -0.0719824
 -0.0906649
 -0.0997253
 -0.106563
 -0.106933
 -0.100801
 -0.0938708
 -0.0823259
 -0.0715067
 -0.0721727
 -0.0903774
 -0.0979619
 -0.10205
 -0.107857
 -0.108306
 -0.0999998
 -0.100043
 -0.0892986
 -0.0683959
 -0.0825275
 -0.103327
 -0.112207
 -0.127972
 -0.129467
 -0.131856
 -0.129452
 -0.114879
 -0.10441
 -0.0893159
 -0.0914667
 -0.111414
 -0.132547
 -0.14292
 -0.157613
 -0.157716
 -0.132782
 -0.12918
 -0.114719
 -0.0956575
 -0.0997468
 -0.133817
 -0.143502
 -0.167824
 -0.174205
 -0.169558
 -0.165131
 -0.148494
 -0.126937
 -0.100593
 -0.113627
 -0.133318
 -0.156229
 -0.172512
 -0.184324
 -0.18909
 -0.172057
 -0.152143
 -0.13053
 -0.106027
 -0.105103
 -0.136555
 -0.161796
 -0.175712
 -0.188624
 -0.184678
 -0.169908
 -0.159159
 -0.130192
 -0.108206
 -0.105315
 -0.119298
 -0.146532
 -0.160478
 -0.178677
 -0.176792
 -0.172338
 -0.145326
 -0.122631
 -0.0978026
 -0.0915499
 -0.122002
 -0.131682
 -0.149563
 -0.159248
 -0.151045
 -0.149167
 -0.132927
 -0.109748
 -0.0936751
 -0.0840207
 -0.109902
 -0.112528
 -0.131648
 -0.121723
 -0.128976
 -0.124608
 -0.118455
 -0.101138
 -0.0761147
 -0.0691654
 -0.082414
 -0.0974046
 -0.0989798
 -0.112098
 -0.106302
 -0.0946758
 -0.0937859
 -0.0809014
 -0.0685898
 -0.0662605
 -0.0829835
 -0.0915114
 -0.0969079
 -0.107785
 -0.108065
 -0.0997601
 -0.0920741
 -0.0889583
 -0.0621365
 -0.0782351
 -0.109828
 -0.122373
 -0.123996
 -0.142256
 -0.128293
 -0.132894
 -0.116659
 -0.103274
 -0.0794238
 -0.0987037
 -0.112394
 -0.136252
 -0.157281
 -0.156757
 -0.153777
 -0.144555
 -0.130005
 -0.119865
 -0.0948722
 -0.105162
 -0.121104
 -0.145114
 -0.167305
 -0.174333
 -0.177183
 -0.154858
 -0.140989
 -0.125756
 -0.103507
 -0.109704
 -0.131009
 -0.154564
 -0.172003
 -0.184888
 -0.189046
 -0.174778
 -0.151077
 -0.13386
 -0.101993
 -0.103765
 -0.129501
 -0.155142
 -0.173336
 -0.188972
 -0.188322
 -0.173684
 -0.156847
 -0.131326
 -0.100366
 -0.0991612
 -0.122517
 -0.150622
 -0.165042
 -0.174058
 -0.172124
 -0.166368
 -0.146313
 -0.127798
 -0.100042
 -0.0962951
 -0.108274
 -0.142481
 -0.146513
 -0.152994
 -0.154593
 -0.149764
 -0.136787
 -0.123744
 -0.0910844
 -0.0897783
 -0.104663
 -0.107914
 -0.125238
 -0.127304
 -0.134676
 -0.12342
 -0.120088
 -0.100108
 -0.0920514
 -0.0661831
 -0.0848619
 -0.0886944
 -0.109964
 -0.101106
 -0.104045
 -0.104049
 -0.0951849
 -0.0872814
 -0.066495
 -0.0705203
 -0.0848067
 -0.0868396
 -0.107376
 -0.104559
 -0.105204
 -0.101845
 -0.0927928
 -0.0768115
 -0.0648973
 -0.0839153
 -0.101994
 -0.1185
 -0.127307
 -0.136506
 -0.1367
 -0.126782
 -0.11028
 -0.0951963
 -0.0766001
 -0.102843
 -0.113776
 -0.129057
 -0.151099
 -0.154804
 -0.162365
 -0.151465
 -0.135188
 -0.112092
 -0.0955947
 -0.100628
 -0.125829
 -0.140377
 -0.162816
 -0.178355
 -0.176923
 -0.167285
 -0.13629
 -0.121028
 -0.0927438
 -0.104643
 -0.131824
 -0.150652
 -0.16854
 -0.184677
 -0.188543
 -0.174428
 -0.163283
 -0.133633
 -0.104033
 -0.109792
 -0.129419
 -0.150761
 -0.172008
 -0.187483
 -0.190885
 -0.171423
 -0.153948
 -0.134181
 -0.102035
 -0.0981657
 -0.12213
 -0.146403
 -0.15919
 -0.180243
 -0.179156
 -0.166007
 -0.148178
 -0.124594
 -0.0962188
 -0.0838207
 -0.111078
 -0.136196
 -0.139363
 -0.152523
 -0.157032
 -0.149366
 -0.133012
 -0.112318
 -0.098298
 -0.0822678
 -0.104695
 -0.107627
 -0.130124
 -0.135893
 -0.134618
 -0.129773
 -0.120826
 -0.103686
 -0.0862402
 -0.0667268
 -0.0817849
 -0.0943845
 -0.105413
 -0.111501
 -0.10822
 -0.105018
 -0.0917366
 -0.09394
 -0.0733608
 -0.069126
 -0.082155
 -0.0908518
 -0.098137
 -0.111066
 -0.10076
 -0.105638
 -0.0976348
 -0.0853212
 -0.0699097
 -0.0802612
 -0.102942
 -0.126753
 -0.126639
 -0.127503
 -0.144949
 -0.124569
 -0.116654
 -0.103762
 -0.0716326
 -0.0842673
 -0.108192
 -0.136148
 -0.145866
 -0.153332
 -0.157539
 -0.148423
 -0.130043
 -0.120616
 -0.0906235
 -0.106514
 -0.123703
 -0.142109
 -0.170215
 -0.172667
 -0.173921
 -0.169212
 -0.14979
 -0.129242
 -0.098042
 -0.109813
 -0.136859
 -0.157937
 -0.176834
 -0.18796
 -0.187572
 -0.171762
 -0.150031
 -0.132682
 -0.104703
 -0.10905
 -0.129381
 -0.14987
 -0.169908
 -0.186923
 -0.178404
 -0.180242
 -0.160741
 -0.136574
 -0.0985413
 -0.0903663
 -0.12271
 -0.150069
 -0.157519
 -0.174897
 -0.176028
 -0.165166
 -0.15302
 -0.121184
 -0.097492
 -0.0981937
 -0.115417
 -0.13344
 -0.141054
 -0.164907
 -0.160204
 -0.140423
 -0.135701
 -0.111068
 -0.0959181
 -0.0855139
 -0.0973226
 -0.111435
 -0.124732
 -0.137052
 -0.13278
 -0.116879
 -0.110535
 -0.0946507
 -0.0873621
 -0.0742223
 -0.0794279
 -0.0960241
 -0.107319
 -0.106912
 -0.102025
 -0.0948986
 -0.098544
 -0.0899584
 -0.0630443

SurfaceElement_HEAT_Q 1 600 FLOAT 
 -0.000629634
 -0.000886674
 -0.00087934
 -0.001085
 -0.00107488
 -0.00110441
 -0.000996163
 -0.000960178
 -0.0008364
 -0.000664741
 -0.000855878
 -0.000946242
 -0.00122563
 -0.00122497
 -0.0013744
 -0.0012941
 -0.00131897
 -0.00121478
 -0.000999888
 -0.000848838
 -0.000962215
 -0.0012087
 -0.00137593
 -0.00155117
 -0.00156758
 -0.00154133
 -0.00144283
 -0.00133977
 -0.00120784
 -0.00095689
 -0.00107395
 -0.00120101
 -0.00148763
 -0.00169443
 -0.00180981
 -0.00177442
 -0.00162636
 -0.00149412
 -0.00132311
 -0.00099518
 -0.00119181
 -0.0013846
 -0.00153733
 -0.00179884
 -0.00196454
 -0.00183212
 -0.00175235
 -0.00157316
 -0.00125937
 -0.00105393
 -0.000981867
 -0.00130671
 -0.00156606
 -0.00172754
 -0.00185084
 -0.00183151
 -0.00182785
 -0.00156182
 -0.0012862
 -0.00112958
 -0.00109268
 -0.00129131
 -0.00149183
 -0.00161517
 -0.00170542
 -0.00173803
 -0.00159506
 -0.00148368
 -0.00123186
 -0.00103486
 -0.000941505
 -0.00116925
 -0.00126168
 -0.00152112
 -0.00147224
 -0.0014791
 -0.00147658
 -0.00136474
 -0.00116588
 -0.000975405
 -0.000836753
 -0.00100104
 -0.00114816
 -0.00135699
 -0.00134933
 -0.00126034
 -0.00124946
 -0.00116536
 -0.001071
 -0.000732893
 -0.000717135
 -0.000882033
 -0.000952362
 -0.00103496
 -0.00103358
 -0.00107429
 -0.000984228
 -0.000973861
 -0.000849132
 -0.00071101
 -0.000675393
 -0.000743085
 -0.000941507
 -0.00104068
 -0.00100937
 -0.00121163
 -0.00104132
 -0.000977001
 -0.000866162
 -0.00080023
 -0.000780634
 -0.000964235
 -0.00115799
 -0.00136121
 -0.00140651
 -0.00127097
 -0.00128176
 -0.00113526
 -0.00105375
 -0.000820703
 -0.000944987
 -0.00121282
 -0.00130136
 -0.00141374
 -0.00160938
 -0.00154117
 -0.00143133
 -0.00134107
 -0.00119934
 -0.000884028
 -0.00101035
 -0.00130237
 -0.00147399
 -0.00162449
 -0.00174742
 -0.00171165
 -0.00164398
 -0.00151241
 -0.00122982
 -0.000956604
 -0.00108018
 -0.0013602
 -0.00162365
 -0.00179186
 -0.00180157
 -0.00189885
 -0.00182787
 -0.00157617
 -0.00137523
 -0.00103577
 -0.00105651
 -0.00134778
 -0.00155816
 -0.00177536
 -0.00184424
 -0.00180743
 -0.00167123
 -0.00156475
 -0.00132267
 -0.00101807
 -0.0010304
 -0.00130999
 -0.00151676
 -0.00161959
 -0.00169724
 -0.00174008
 -0.00164244
 -0.00146663
 -0.0011793
 -0.000984547
 -0.000950604
 -0.00119578
 -0.00138144
 -0.00139767
 -0.00161744
 -0.0015509
 -0.00150411
 -0.00140208
 -0.00116405
 -0.00095232
 -0.00083932
 -0.00106429
 -0.00116427
 -0.00129764
 -0.00133107
 -0.00133006
 -0.00122726
 -0.00118372
 -0.00100906
 -0.000791862
 -0.000678524
 -0.000719824
 -0.000906649
 -0.000997253
 -0.00106563
 -0.00106933
 -0.00100801
 -0.000938708
 -0.000823259
 -0.000715067
 -0.000721727
 -0.000903774
 -0.000979619
 -0.0010205
 -0.00107857
 -0.00108306
 -0.000999998
 -0.00100043
 -0.000892986
 -0.000683959
 -0.000825275
 -0.00103327
 -0.00112207
 -0.00127972
 -0.00129467
 -0.00131856
 -0.00129452
 -0.00114879
 -0.0010441
 -0.000893159
 -0.000914667
 -0.00111414
 -0.00132547
 -0.0014292
 -0.00157613
 -0.00157716
 -0.00132782
 -0.0012918
 -0.00114719
 -0.000956575
 -0.000997468
 -0.00133817
 -0.00143502
 -0.00167824
 -0.00174205
 -0.00169558
 -0.00165131
 -0.00148494
 -0.00126937
 -0.00100593
 -0.00113627
 -0.00133318
 -0.00156229
 -0.00172512
 -0.00184324
 -0.0018909
 -0.00172057
 -0.00152143
 -0.0013053
 -0.00106027
 -0.00105103
 -0.00136555
 -0.00161796
 -0.00175712
 -0.00188624
 -0.00184678
 -0.00169908
 -0.00159159
 -0.00130192
 -0.00108206
 -0.00105315
 -0.00119298
 -0.00146532
 -0.00160478
 -0.00178677
 -0.00176792
 -0.00172338
 -0.00145326
 -0.00122631
 -0.000978026
 -0.000915499
 -0.00122002
 -0.00131682
 -0.00149563
 -0.00159248
 -0.00151045
 -0.00149167
 -0.00132927
 -0.00109748
 -0.000936751
 -0.000840207
 -0.00109902
 -0.00112528
 -0.00131648
 -0.00121723
 -0.00128976
 -0.00124608
 -0.00118455
 -0.00101138
 -0.000761147
 -0.000691654
 -0.00082414
 -0.000974046
 -0.000989798
 -0.00112098
 -0.00106302
 -0.000946758
 -0.000937859
 -0.000809014
 -0.000685898
 -0.000662605
 -0.000829835
 -0.000915114
 -0.000969079
 -0.00107785
 -0.00108065
 -0.000997601
 -0.000920741
 -0.000889583
 -0.000621365
 -0.000782351
 -0.00109828
 -0.00122373
 -0.00123996
 -0.00142256
 -0.00128293
 -0.00132894
 -0.00116659
 -0.00103274
 -0.000794238
 -0.000987037
 -0.00112394
 -0.00136252
 -0.00157281
 -0.00156757
 -0.00153777
 -0.00144555
 -0.00130005
 -0.00119865
 -0.000948722
 -0.00105162
 -0.00121104
 -0.00145114
 -0.00167305
 -0.00174333
 -0.00177183
 -0.00154858
 -0.00140989
 -0.00125756
 -0.00103507
 -0.00109704
 -0.00131009
 -0.00154564
 -0.00172003
 -0.00184888
 -0.00189046
 -0.00174778
 -0.00151077
 -0.0013386
 -0.00101993
 -0.00103765
 -0.00129501
 -0.00155142
 -0.00173336
 -0.00188972
 -0.00188322
 -0.00173684
 -0.00156847
 -0.00131326
 -0.00100366
 -0.000991612
 -0.00122517
 -0.00150622
 -0.00165042
 -0.00174058
 -0.00172124
 -0.00166368
 -0.00146313
 -0.00127798
 -0.00100042
 -0.000962951
 -0.00108274
 -0.00142481
 -0.00146513
 -0.00152994
 -0.00154593
 -0.00149764
 -0.00136787
 -0.00123744
 -0.000910844
 -0.000897783
 -0.00104663
 -0.00107914
 -0.00125238
 -0.00127304
 -0.00134676
 -0.0012342
 -0.00120088
 -0.00100108
 -0.000920514
 -0.000661831
 -0.000848619
 -0.000886944
 -0.00109964
 -0.00101106
 -0.00104045
 -0.00104049
 -0.000951849
 -0.000872814
 -0.00066495
 -0.000705203
 -0.000848067
 -0.000868396
 -0.00107376
 -0.00104559
 -0.00105204
 -0.00101845
 -0.000927928
 -0.000768115
 -0.000648973
 -0.000839153
 -0.00101994
 -0.001185
 -0.00127307
 -0.00136506
 -0.001367
 -0.00126782
 -0.0011028
 -0.000951963
 -0.000766001
 -0.00102843
 -0.00113776
 -0.00129057
 -0.00151099
 -0.00154804
 -0.00162365
 -0.00151465
 -0.00135188
 -0.00112092
 -0.000955947
 -0.00100628
 -0.00125829
 -0.00140377
 -0.00162816
 -0.00178355
 -0.00176923
 -0.00167285
 -0.0013629
 -0.00121028
 -0.000927438
 -0.00104643
 -0.00131824
 -0.00150652
 -0.0016854
 -0.00184677
 -0.00188543
 -0.00174428
 -0.00163283
 -0.00133633
 -0.00104033
 -0.00109792
 -0.00129419
 -0.00150761
 -0.00172008
 -0.00187483
 -0.00190885
 -0.00171423
 -0.00153948
 -0.00134181
 -0.00102035
 -0.000981657
 -0.0012213
 -0.00146403
 -0.0015919
 -0.00180243
 -0.00179156
 -0.00166007
 -0.00148178
 -0.00124594
 -0.000962188
 -0.000838207
 -0.00111078
 -0.00136196
 -0.00139363
 -0.00152523
 -0.00157032
 -0.00149366
 -0.00133012
 -0.00112318
 -0.00098298
 -0.000822678
 -0.00104695
 -0.00107627
 -0.00130124
 -0.00135893
 -0.00134618
 -0.00129773
 -0.00120826
 -0.00103686
 -0.000862402
 -0.000667268
 -0.000817849
 -0.000943845
 -0.00105413
 -0.00111501
 -0.0010822
 -0.00105018
 -0.000917366
 -0.0009394
 -0.000733608
 -0.00069126
 -0.00082155
 -0.000908518
 -0.00098137
 -0.00111066
 -0.0010076
 -0.00105638
 -0.000976348
 -0.000853212
 -0.000699097
 -0.000802612
 -0.00102942
 -0.00126753
 -0.00126639
 -0.00127503
 -0.00144949
 -0.00124569
 -0.00116654
 -0.00103762
 -0.000716326
 -0.000842673
 -0.00108192
 -0.00136148
 -0.00145866
 -0.00153332
 -0.00157539
 -0.00148423
 -0.00130043
 -0.00120616
 -0.000906235
 -0.00106514
 -0.00123703
 -0.00142109
 -0.00170215
 -0.00172667
 -0.00173921
 -0.00169212
 -0.0014979
 -0.00129242
 -0.00098042
 -0.00109813
 -0.00136859
 -0.00157937
 -0.00176834
 -0.0018796
 -0.00187572
 -0.00171762
 -0.00150031
 -0.00132682
 -0.00104703
 -0.0010905
 -0.00129381
 -0.0014987
 -0.00169908
 -0.00186923
 -0.00178404
 -0.00180242
 -0.00160741
 -0.00136574
 -0.000985413
 -0.000903663
 -0.0012271
 -0.00150069
 -0.00157519
 -0.00174897
 -0.00176028
 -0.00165166
 -0.0015302
 -0.00121184
 -0.00097492
 -0.000981937
 -0.00115417
 -0.0013344
 -0.00141054
 -0.00164907
 -0.00160204
 -0.00140423
 -0.00135701
 -0.00111068
 -0.000959181
 -0.000855139
 -0.000973226
 -0.00111435
 -0.00124732
 -0.00137052
 -0.0013278
 -0.00116879
 -0.00110535
 -0.000946507
 -0.000873621
 -0.000742223
 -0.000794279
 -0.000960241
 -0.00107319
 -0.00106912
 -0.00102025
 -0.000948986
 -0.00098544
 -0.000899584
 -0.000630443
