# vtk DataFile Version 2.0
Three-D cube surface heat flux and Q display
ASCII
DATASET UNSTRUCTURED_GRID

POINTS 602 FLOAT 
 -0.5 -0.5 -0.5
 -0.4 -0.5 -0.5
 -0.3 -0.5 -0.5
 -0.2 -0.5 -0.5
 -0.1 -0.5 -0.5
 0 -0.5 -0.5
 0.1 -0.5 -0.5
 0.2 -0.5 -0.5
 0.3 -0.5 -0.5
 0.4 -0.5 -0.5
 0.5 -0.5 -0.5
 -0.5 -0.4 -0.5
 -0.4 -0.4 -0.5
 -0.3 -0.4 -0.5
 -0.2 -0.4 -0.5
 -0.1 -0.4 -0.5
 0 -0.4 -0.5
 0.1 -0.4 -0.5
 0.2 -0.4 -0.5
 0.3 -0.4 -0.5
 0.4 -0.4 -0.5
 0.5 -0.4 -0.5
 -0.5 -0.3 -0.5
 -0.4 -0.3 -0.5
 -0.3 -0.3 -0.5
 -0.2 -0.3 -0.5
 -0.1 -0.3 -0.5
 0 -0.3 -0.5
 0.1 -0.3 -0.5
 0.2 -0.3 -0.5
 0.3 -0.3 -0.5
 0.4 -0.3 -0.5
 0.5 -0.3 -0.5
 -0.5 -0.2 -0.5
 -0.4 -0.2 -0.5
 -0.3 -0.2 -0.5
 -0.2 -0.2 -0.5
 -0.1 -0.2 -0.5
 0 -0.2 -0.5
 0.1 -0.2 -0.5
 0.2 -0.2 -0.5
 0.3 -0.2 -0.5
 0.4 -0.2 -0.5
 0.5 -0.2 -0.5
 -0.5 -0.1 -0.5
 -0.4 -0.1 -0.5
 -0.3 -0.1 -0.5
 -0.2 -0.1 -0.5
 -0.1 -0.1 -0.5
 0 -0.1 -0.5
 0.1 -0.1 -0.5
 0.2 -0.1 -0.5
 0.3 -0.1 -0.5
 0.4 -0.1 -0.5
 0.5 -0.1 -0.5
 -0.5 0 -0.5
 -0.4 0 -0.5
 -0.3 0 -0.5
 -0.2 0 -0.5
 -0.1 0 -0.5
 0 0 -0.5
 0.1 0 -0.5
 0.2 0 -0.5
 0.3 0 -0.5
 0.4 0 -0.5
 0.5 0 -0.5
 -0.5 0.1 -0.5
 -0.4 0.1 -0.5
 -0.3 0.1 -0.5
 -0.2 0.1 -0.5
 -0.1 0.1 -0.5
 0 0.1 -0.5
 0.1 0.1 -0.5
 0.2 0.1 -0.5
 0.3 0.1 -0.5
 0.4 0.1 -0.5
 0.5 0.1 -0.5
 -0.5 0.2 -0.5
 -0.4 0.2 -0.5
 -0.3 0.2 -0.5
 -0.2 0.2 -0.5
 -0.1 0.2 -0.5
 0 0.2 -0.5
 0.1 0.2 -0.5
 0.2 0.2 -0.5
 0.3 0.2 -0.5
 0.4 0.2 -0.5
 0.5 0.2 -0.5
 -0.5 0.3 -0.5
 -0.4 0.3 -0.5
 -0.3 0.3 -0.5
 -0.2 0.3 -0.5
 -0.1 0.3 -0.5
 0 0.3 -0.5
 0.1 0.3 -0.5
 0.2 0.3 -0.5
 0.3 0.3 -0.5
 0.4 0.3 -0.5
 0.5 0.3 -0.5
 -0.5 0.4 -0.5
 -0.4 0.4 -0.5
 -0.3 0.4 -0.5
 -0.2 0.4 -0.5
 -0.1 0.4 -0.5
 0 0.4 -0.5
 0.1 0.4 -0.5
 0.2 0.4 -0.5
 0.3 0.4 -0.5
 0.4 0.4 -0.5
 0.5 0.4 -0.5
 -0.5 0.5 -0.5
 -0.4 0.5 -0.5
 -0.3 0.5 -0.5
 -0.2 0.5 -0.5
 -0.1 0.5 -0.5
 0 0.5 -0.5
 0.1 0.5 -0.5
 0.2 0.5 -0.5
 0.3 0.5 -0.5
 0.4 0.5 -0.5
 0.5 0.5 -0.5
 -0.5 -0.5 0.5
 -0.4 -0.5 0.5
 -0.3 -0.5 0.5
 -0.2 -0.5 0.5
 -0.1 -0.5 0.5
 0 -0.5 0.5
 0.1 -0.5 0.5
 0.2 -0.5 0.5
 0.3 -0.5 0.5
 0.4 -0.5 0.5
 0.5 -0.5 0.5
 -0.5 -0.4 0.5
 -0.4 -0.4 0.5
 -0.3 -0.4 0.5
 -0.2 -0.4 0.5
 -0.1 -0.4 0.5
 0 -0.4 0.5
 0.1 -0.4 0.5
 0.2 -0.4 0.5
 0.3 -0.4 0.5
 0.4 -0.4 0.5
 0.5 -0.4 0.5
 -0.5 -0.3 0.5
 -0.4 -0.3 0.5
 -0.3 -0.3 0.5
 -0.2 -0.3 0.5
 -0.1 -0.3 0.5
 0 -0.3 0.5
 0.1 -0.3 0.5
 0.2 -0.3 0.5
 0.3 -0.3 0.5
 0.4 -0.3 0.5
 0.5 -0.3 0.5
 -0.5 -0.2 0.5
 -0.4 -0.2 0.5
 -0.3 -0.2 0.5
 -0.2 -0.2 0.5
 -0.1 -0.2 0.5
 0 -0.2 0.5
 0.1 -0.2 0.5
 0.2 -0.2 0.5
 0.3 -0.2 0.5
 0.4 -0.2 0.5
 0.5 -0.2 0.5
 -0.5 -0.1 0.5
 -0.4 -0.1 0.5
 -0.3 -0.1 0.5
 -0.2 -0.1 0.5
 -0.1 -0.1 0.5
 0 -0.1 0.5
 0.1 -0.1 0.5
 0.2 -0.1 0.5
 0.3 -0.1 0.5
 0.4 -0.1 0.5
 0.5 -0.1 0.5
 -0.5 0 0.5
 -0.4 0 0.5
 -0.3 0 0.5
 -0.2 0 0.5
 -0.1 0 0.5
 0 0 0.5
 0.1 0 0.5
 0.2 0 0.5
 0.3 0 0.5
 0.4 0 0.5
 0.5 0 0.5
 -0.5 0.1 0.5
 -0.4 0.1 0.5
 -0.3 0.1 0.5
 -0.2 0.1 0.5
 -0.1 0.1 0.5
 0 0.1 0.5
 0.1 0.1 0.5
 0.2 0.1 0.5
 0.3 0.1 0.5
 0.4 0.1 0.5
 0.5 0.1 0.5
 -0.5 0.2 0.5
 -0.4 0.2 0.5
 -0.3 0.2 0.5
 -0.2 0.2 0.5
 -0.1 0.2 0.5
 0 0.2 0.5
 0.1 0.2 0.5
 0.2 0.2 0.5
 0.3 0.2 0.5
 0.4 0.2 0.5
 0.5 0.2 0.5
 -0.5 0.3 0.5
 -0.4 0.3 0.5
 -0.3 0.3 0.5
 -0.2 0.3 0.5
 -0.1 0.3 0.5
 0 0.3 0.5
 0.1 0.3 0.5
 0.2 0.3 0.5
 0.3 0.3 0.5
 0.4 0.3 0.5
 0.5 0.3 0.5
 -0.5 0.4 0.5
 -0.4 0.4 0.5
 -0.3 0.4 0.5
 -0.2 0.4 0.5
 -0.1 0.4 0.5
 0 0.4 0.5
 0.1 0.4 0.5
 0.2 0.4 0.5
 0.3 0.4 0.5
 0.4 0.4 0.5
 0.5 0.4 0.5
 -0.5 0.5 0.5
 -0.4 0.5 0.5
 -0.3 0.5 0.5
 -0.2 0.5 0.5
 -0.1 0.5 0.5
 0 0.5 0.5
 0.1 0.5 0.5
 0.2 0.5 0.5
 0.3 0.5 0.5
 0.4 0.5 0.5
 0.5 0.5 0.5
 -0.5 0.5 -0.4
 -0.4 0.5 -0.4
 -0.3 0.5 -0.4
 -0.2 0.5 -0.4
 -0.1 0.5 -0.4
 0 0.5 -0.4
 0.1 0.5 -0.4
 0.2 0.5 -0.4
 0.3 0.5 -0.4
 0.4 0.5 -0.4
 0.5 0.5 -0.4
 -0.5 0.5 -0.3
 -0.4 0.5 -0.3
 -0.3 0.5 -0.3
 -0.2 0.5 -0.3
 -0.1 0.5 -0.3
 0 0.5 -0.3
 0.1 0.5 -0.3
 0.2 0.5 -0.3
 0.3 0.5 -0.3
 0.4 0.5 -0.3
 0.5 0.5 -0.3
 -0.5 0.5 -0.2
 -0.4 0.5 -0.2
 -0.3 0.5 -0.2
 -0.2 0.5 -0.2
 -0.1 0.5 -0.2
 0 0.5 -0.2
 0.1 0.5 -0.2
 0.2 0.5 -0.2
 0.3 0.5 -0.2
 0.4 0.5 -0.2
 0.5 0.5 -0.2
 -0.5 0.5 -0.1
 -0.4 0.5 -0.1
 -0.3 0.5 -0.1
 -0.2 0.5 -0.1
 -0.1 0.5 -0.1
 0 0.5 -0.1
 0.1 0.5 -0.1
 0.2 0.5 -0.1
 0.3 0.5 -0.1
 0.4 0.5 -0.1
 0.5 0.5 -0.1
 -0.5 0.5 0
 -0.4 0.5 0
 -0.3 0.5 0
 -0.2 0.5 0
 -0.1 0.5 0
 0 0.5 0
 0.1 0.5 0
 0.2 0.5 0
 0.3 0.5 0
 0.4 0.5 0
 0.5 0.5 0
 -0.5 0.5 0.1
 -0.4 0.5 0.1
 -0.3 0.5 0.1
 -0.2 0.5 0.1
 -0.1 0.5 0.1
 0 0.5 0.1
 0.1 0.5 0.1
 0.2 0.5 0.1
 0.3 0.5 0.1
 0.4 0.5 0.1
 0.5 0.5 0.1
 -0.5 0.5 0.2
 -0.4 0.5 0.2
 -0.3 0.5 0.2
 -0.2 0.5 0.2
 -0.1 0.5 0.2
 0 0.5 0.2
 0.1 0.5 0.2
 0.2 0.5 0.2
 0.3 0.5 0.2
 0.4 0.5 0.2
 0.5 0.5 0.2
 -0.5 0.5 0.3
 -0.4 0.5 0.3
 -0.3 0.5 0.3
 -0.2 0.5 0.3
 -0.1 0.5 0.3
 0 0.5 0.3
 0.1 0.5 0.3
 0.2 0.5 0.3
 0.3 0.5 0.3
 0.4 0.5 0.3
 0.5 0.5 0.3
 -0.5 0.5 0.4
 -0.4 0.5 0.4
 -0.3 0.5 0.4
 -0.2 0.5 0.4
 -0.1 0.5 0.4
 0 0.5 0.4
 0.1 0.5 0.4
 0.2 0.5 0.4
 0.3 0.5 0.4
 0.4 0.5 0.4
 0.5 0.5 0.4
 -0.5 -0.5 -0.4
 -0.4 -0.5 -0.4
 -0.3 -0.5 -0.4
 -0.2 -0.5 -0.4
 -0.1 -0.5 -0.4
 0 -0.5 -0.4
 0.1 -0.5 -0.4
 0.2 -0.5 -0.4
 0.3 -0.5 -0.4
 0.4 -0.5 -0.4
 0.5 -0.5 -0.4
 -0.5 -0.5 -0.3
 -0.4 -0.5 -0.3
 -0.3 -0.5 -0.3
 -0.2 -0.5 -0.3
 -0.1 -0.5 -0.3
 0 -0.5 -0.3
 0.1 -0.5 -0.3
 0.2 -0.5 -0.3
 0.3 -0.5 -0.3
 0.4 -0.5 -0.3
 0.5 -0.5 -0.3
 -0.5 -0.5 -0.2
 -0.4 -0.5 -0.2
 -0.3 -0.5 -0.2
 -0.2 -0.5 -0.2
 -0.1 -0.5 -0.2
 0 -0.5 -0.2
 0.1 -0.5 -0.2
 0.2 -0.5 -0.2
 0.3 -0.5 -0.2
 0.4 -0.5 -0.2
 0.5 -0.5 -0.2
 -0.5 -0.5 -0.1
 -0.4 -0.5 -0.1
 -0.3 -0.5 -0.1
 -0.2 -0.5 -0.1
 -0.1 -0.5 -0.1
 0 -0.5 -0.1
 0.1 -0.5 -0.1
 0.2 -0.5 -0.1
 0.3 -0.5 -0.1
 0.4 -0.5 -0.1
 0.5 -0.5 -0.1
 -0.5 -0.5 0
 -0.4 -0.5 0
 -0.3 -0.5 0
 -0.2 -0.5 0
 -0.1 -0.5 0
 0 -0.5 0
 0.1 -0.5 0
 0.2 -0.5 0
 0.3 -0.5 0
 0.4 -0.5 0
 0.5 -0.5 0
 -0.5 -0.5 0.1
 -0.4 -0.5 0.1
 -0.3 -0.5 0.1
 -0.2 -0.5 0.1
 -0.1 -0.5 0.1
 0 -0.5 0.1
 0.1 -0.5 0.1
 0.2 -0.5 0.1
 0.3 -0.5 0.1
 0.4 -0.5 0.1
 0.5 -0.5 0.1
 -0.5 -0.5 0.2
 -0.4 -0.5 0.2
 -0.3 -0.5 0.2
 -0.2 -0.5 0.2
 -0.1 -0.5 0.2
 0 -0.5 0.2
 0.1 -0.5 0.2
 0.2 -0.5 0.2
 0.3 -0.5 0.2
 0.4 -0.5 0.2
 0.5 -0.5 0.2
 -0.5 -0.5 0.3
 -0.4 -0.5 0.3
 -0.3 -0.5 0.3
 -0.2 -0.5 0.3
 -0.1 -0.5 0.3
 0 -0.5 0.3
 0.1 -0.5 0.3
 0.2 -0.5 0.3
 0.3 -0.5 0.3
 0.4 -0.5 0.3
 0.5 -0.5 0.3
 -0.5 -0.5 0.4
 -0.4 -0.5 0.4
 -0.3 -0.5 0.4
 -0.2 -0.5 0.4
 -0.1 -0.5 0.4
 0 -0.5 0.4
 0.1 -0.5 0.4
 0.2 -0.5 0.4
 0.3 -0.5 0.4
 0.4 -0.5 0.4
 0.5 -0.5 0.4
 -0.5 -0.4 -0.4
 -0.5 -0.3 -0.4
 -0.5 -0.2 -0.4
 -0.5 -0.1 -0.4
 -0.5 0 -0.4
 -0.5 0.1 -0.4
 -0.5 0.2 -0.4
 -0.5 0.3 -0.4
 -0.5 0.4 -0.4
 -0.5 -0.4 -0.3
 -0.5 -0.3 -0.3
 -0.5 -0.2 -0.3
 -0.5 -0.1 -0.3
 -0.5 0 -0.3
 -0.5 0.1 -0.3
 -0.5 0.2 -0.3
 -0.5 0.3 -0.3
 -0.5 0.4 -0.3
 -0.5 -0.4 -0.2
 -0.5 -0.3 -0.2
 -0.5 -0.2 -0.2
 -0.5 -0.1 -0.2
 -0.5 0 -0.2
 -0.5 0.1 -0.2
 -0.5 0.2 -0.2
 -0.5 0.3 -0.2
 -0.5 0.4 -0.2
 -0.5 -0.4 -0.1
 -0.5 -0.3 -0.1
 -0.5 -0.2 -0.1
 -0.5 -0.1 -0.1
 -0.5 0 -0.1
 -0.5 0.1 -0.1
 -0.5 0.2 -0.1
 -0.5 0.3 -0.1
 -0.5 0.4 -0.1
 -0.5 -0.4 0
 -0.5 -0.3 0
 -0.5 -0.2 0
 -0.5 -0.1 0
 -0.5 0 0
 -0.5 0.1 0
 -0.5 0.2 0
 -0.5 0.3 0
 -0.5 0.4 0
 -0.5 -0.4 0.1
 -0.5 -0.3 0.1
 -0.5 -0.2 0.1
 -0.5 -0.1 0.1
 -0.5 0 0.1
 -0.5 0.1 0.1
 -0.5 0.2 0.1
 -0.5 0.3 0.1
 -0.5 0.4 0.1
 -0.5 -0.4 0.2
 -0.5 -0.3 0.2
 -0.5 -0.2 0.2
 -0.5 -0.1 0.2
 -0.5 0 0.2
 -0.5 0.1 0.2
 -0.5 0.2 0.2
 -0.5 0.3 0.2
 -0.5 0.4 0.2
 -0.5 -0.4 0.3
 -0.5 -0.3 0.3
 -0.5 -0.2 0.3
 -0.5 -0.1 0.3
 -0.5 0 0.3
 -0.5 0.1 0.3
 -0.5 0.2 0.3
 -0.5 0.3 0.3
 -0.5 0.4 0.3
 -0.5 -0.4 0.4
 -0.5 -0.3 0.4
 -0.5 -0.2 0.4
 -0.5 -0.1 0.4
 -0.5 0 0.4
 -0.5 0.1 0.4
 -0.5 0.2 0.4
 -0.5 0.3 0.4
 -0.5 0.4 0.4
 0.5 -0.4 -0.4
 0.5 -0.3 -0.4
 0.5 -0.2 -0.4
 0.5 -0.1 -0.4
 0.5 0 -0.4
 0.5 0.1 -0.4
 0.5 0.2 -0.4
 0.5 0.3 -0.4
 0.5 0.4 -0.4
 0.5 -0.4 -0.3
 0.5 -0.3 -0.3
 0.5 -0.2 -0.3
 0.5 -0.1 -0.3
 0.5 0 -0.3
 0.5 0.1 -0.3
 0.5 0.2 -0.3
 0.5 0.3 -0.3
 0.5 0.4 -0.3
 0.5 -0.4 -0.2
 0.5 -0.3 -0.2
 0.5 -0.2 -0.2
 0.5 -0.1 -0.2
 0.5 0 -0.2
 0.5 0.1 -0.2
 0.5 0.2 -0.2
 0.5 0.3 -0.2
 0.5 0.4 -0.2
 0.5 -0.4 -0.1
 0.5 -0.3 -0.1
 0.5 -0.2 -0.1
 0.5 -0.1 -0.1
 0.5 0 -0.1
 0.5 0.1 -0.1
 0.5 0.2 -0.1
 0.5 0.3 -0.1
 0.5 0.4 -0.1
 0.5 -0.4 0
 0.5 -0.3 0
 0.5 -0.2 0
 0.5 -0.1 0
 0.5 0 0
 0.5 0.1 0
 0.5 0.2 0
 0.5 0.3 0
 0.5 0.4 0
 0.5 -0.4 0.1
 0.5 -0.3 0.1
 0.5 -0.2 0.1
 0.5 -0.1 0.1
 0.5 0 0.1
 0.5 0.1 0.1
 0.5 0.2 0.1
 0.5 0.3 0.1
 0.5 0.4 0.1
 0.5 -0.4 0.2
 0.5 -0.3 0.2
 0.5 -0.2 0.2
 0.5 -0.1 0.2
 0.5 0 0.2
 0.5 0.1 0.2
 0.5 0.2 0.2
 0.5 0.3 0.2
 0.5 0.4 0.2
 0.5 -0.4 0.3
 0.5 -0.3 0.3
 0.5 -0.2 0.3
 0.5 -0.1 0.3
 0.5 0 0.3
 0.5 0.1 0.3
 0.5 0.2 0.3
 0.5 0.3 0.3
 0.5 0.4 0.3
 0.5 -0.4 0.4
 0.5 -0.3 0.4
 0.5 -0.2 0.4
 0.5 -0.1 0.4
 0.5 0 0.4
 0.5 0.1 0.4
 0.5 0.2 0.4
 0.5 0.3 0.4
 0.5 0.4 0.4

CELLS 600 3000
 4 0 1 12 11
 4 1 2 13 12
 4 2 3 14 13
 4 3 4 15 14
 4 4 5 16 15
 4 5 6 17 16
 4 6 7 18 17
 4 7 8 19 18
 4 8 9 20 19
 4 9 10 21 20
 4 11 12 23 22
 4 12 13 24 23
 4 13 14 25 24
 4 14 15 26 25
 4 15 16 27 26
 4 16 17 28 27
 4 17 18 29 28
 4 18 19 30 29
 4 19 20 31 30
 4 20 21 32 31
 4 22 23 34 33
 4 23 24 35 34
 4 24 25 36 35
 4 25 26 37 36
 4 26 27 38 37
 4 27 28 39 38
 4 28 29 40 39
 4 29 30 41 40
 4 30 31 42 41
 4 31 32 43 42
 4 33 34 45 44
 4 34 35 46 45
 4 35 36 47 46
 4 36 37 48 47
 4 37 38 49 48
 4 38 39 50 49
 4 39 40 51 50
 4 40 41 52 51
 4 41 42 53 52
 4 42 43 54 53
 4 44 45 56 55
 4 45 46 57 56
 4 46 47 58 57
 4 47 48 59 58
 4 48 49 60 59
 4 49 50 61 60
 4 50 51 62 61
 4 51 52 63 62
 4 52 53 64 63
 4 53 54 65 64
 4 55 56 67 66
 4 56 57 68 67
 4 57 58 69 68
 4 58 59 70 69
 4 59 60 71 70
 4 60 61 72 71
 4 61 62 73 72
 4 62 63 74 73
 4 63 64 75 74
 4 64 65 76 75
 4 66 67 78 77
 4 67 68 79 78
 4 68 69 80 79
 4 69 70 81 80
 4 70 71 82 81
 4 71 72 83 82
 4 72 73 84 83
 4 73 74 85 84
 4 74 75 86 85
 4 75 76 87 86
 4 77 78 89 88
 4 78 79 90 89
 4 79 80 91 90
 4 80 81 92 91
 4 81 82 93 92
 4 82 83 94 93
 4 83 84 95 94
 4 84 85 96 95
 4 85 86 97 96
 4 86 87 98 97
 4 88 89 100 99
 4 89 90 101 100
 4 90 91 102 101
 4 91 92 103 102
 4 92 93 104 103
 4 93 94 105 104
 4 94 95 106 105
 4 95 96 107 106
 4 96 97 108 107
 4 97 98 109 108
 4 99 100 111 110
 4 100 101 112 111
 4 101 102 113 112
 4 102 103 114 113
[...]
CELL_DATA 600
FIELD DOMAIN 2
SurfaceElement_HEAT_FLUX_q 1 600 FLOAT
 0.886979
 0.887642
 0.87684
 0.876047
 0.889755
 0.875458
 0.879229
 0.870437
 0.89249
 0.885161
 0.886432
 0.885341
 0.864778
 0.887822
 0.886104
 0.865787
 0.876078
 0.876307
 0.887979
 0.883417
 0.90191
 0.890607
 0.870711
 0.88336
 0.870731
 0.874899
 0.884063
 0.88505
 0.890443
 0.88351
 0.891716
 0.880123
 0.880173
 0.887563
 0.872599
 0.881595
 0.870704
 0.882346
 0.878177
 0.894478
 0.893072
 0.886106
 0.879025
 0.866723
 0.881554
 0.867259
 0.884522
 0.881811
 0.869537
 0.894746
 0.89938
 0.887672
 0.883793
 0.888335
 0.892665
 0.880405
 0.878009
 0.886833
 0.881937
 0.884586
 0.884419
 0.893826
 0.871601
 0.886088
 0.884766
 0.876357
 0.87608
 0.872748
 0.884334
 0.890526
 0.883717
 0.882774
 0.877772
 0.880125
 0.872223
 0.889112
 0.888974
 0.885561
 0.883487
 0.885499
 0.890252
 0.880594
 0.877902
 0.876947
 0.876429
 0.88116
 0.894028
 0.874557
 0.887503
 0.889543
 0.890388
 0.881862
 0.88077
 0.889049
 0.876786
 0.876346
 0.879107
 0.884819
 0.890791
 0.88355
 0.896058
 0.882668
 0.890419
 0.872242
 0.885934
 0.88492
 0.884329
 0.880322
 0.890676
 0.885327
 0.885302
 0.885476
 0.88782
 0.879051
 0.880101
 0.88279
 0.892323
 0.875902
 0.903214
 0.894986
 0.894716
 0.893356
 0.891962
 0.881646
 0.868901
 0.877821
 0.884744
 0.885608
 0.881757
 0.894387
 0.879592
 0.886108
 0.87859
 0.869867
 0.884514
 0.875496
 0.879258
 0.890023
 0.884937
 0.891952
 0.895239
 0.87669
 0.873479
 0.894353
 0.894806
 0.876264
 0.891157
 0.879821
 0.889202
 0.89602
 0.887897
 0.883505
 0.882207
 0.881863
 0.868351
 0.88082
 0.869361
 0.884144
 0.885842
 0.907305
 0.894118
 0.887948
 0.892366
 0.880214
 0.883045
 0.870144
 0.888273
 0.878956
 0.874413
 0.8902
 0.899195
 0.885828
 0.884327
 0.890941
 0.881945
 0.882959
 0.881375
 0.887459
 0.877628
 0.898402
 0.896618
 0.890337
 0.880637
 0.895397
 0.893759
 0.880899
 0.877901
 0.886106
 0.885209
 0.889646
 0.880579
 0.876204
 0.885819
 0.883996
 0.877789
 0.868289
 0.878148
 0.879629
 0.887015
 0.88924
 0
 0
 0
 0
 0
 0
 0
 0
 0
 0
 0
 0
 0
 0
 0
 0
 0
 0
 0
 0
 0
 0
 0
 0
 0
 0
 0
 0
 0
 0
 0
 0
 0
 0
 0
 0
 0
 0
 0
 0
 0
 0
 0
 0
 0
 0
 0
 0
 0
 0
 0
 0
 0
 0
 0
 0
 0
 0
 0
 0
 0
 0
 0
 0
 0
 0
 0
 0
 0
 0
 0
 0
 0
 0
 0
 0
 0
 0
 0
 0
 0
 0
 0
 0
 0
 0
 0
 0
 0
 0
 0
 0
 0
 0
 0
 0
 0
 0
 0
 0
 0
 0
 0
 0
 0
 0
 0
 0
 0
 0
 0
 0
 0
 0
 0
 0
 0
 0
 0
 0
 0
 0
 0
 0
 0
 0
 0
 0
 0
 0
 0
 0
 0
 0
 0
 0
 0
 0
 0
 0
 0
 0
 0
 0
 0
 0
 0
 0
 0
 0
 0
 0
 0
 0
 0
 0
 0
 0
 0
 0
 0
 0
 0
 0
 0
 0
 0
 0
 0
 0
 0
 0
 0
 0
 0
 0
 0
 0
 0
 0
 0
 0
 0
 0
 0
 0
 0
 0
 0
 0
 0
 0
 0
 0
 0
 0
 0
 0
 0
 0
 -1.00664
 -0.93151
 -0.944496
 -0.956416
 -0.942415
 -0.97693
 -0.880592
 -0.905314
 -0.959279
 -0.939025
 -0.920401
 -0.898728
 -0.957539
 -0.907818
 -0.841284
 -0.936295
 -0.816732
 -0.975422
 -0.928478
 -0.890524
 -0.865645
 -0.845746
 -0.874029
 -0.90359
 -0.853755
 -0.949147
 -0.91828
 -0.863146
 -0.876225
 -0.910951
 -0.856281
 -0.874852
 -0.827263
 -0.827074
 -0.812168
 -0.834201
 -0.808954
 -0.881484
 -0.834956
 -0.870831
 -0.894255
 -0.82341
 -0.847584
 -0.815784
 -0.849755
 -0.857952
 -0.85196
 -0.843173
 -0.84306
 -0.890772
 -0.873493
 -0.890991
 -0.800472
 -0.852068
 -0.871164
 -0.885307
 -0.810584
 -0.836907
 -0.861034
 -0.788636
 -0.782738
 -0.840366
 -0.890379
 -0.859636
 -0.842543
 -0.882191
 -0.847267
 -0.903142
 -0.845243
 -0.829264
 -0.891143
 -0.893258
 -0.834123
 -0.878391
 -0.864273
 -0.919043
 -0.853335
 -0.878018
 -0.881235
 -0.902987
 -0.902085
 -0.974055
 -0.876366
 -0.908831
 -0.921478
 -0.937612
 -0.875061
 -0.834555
 -0.916738
 -0.851929
 -0.928614
 -0.966175
 -0.934711
 -0.935416
 -0.936374
 -0.950853
 -1.02764
 -0.936791
 -0.918667
 -0.962456
 -0.913159
 -0.934094
 -0.993385
 -0.915525
 -0.96114
 -0.936813
 -1.0101
 -0.924503
 -0.909194
 -0.922576
 -0.908315
 -0.996745
 -0.892797
 -0.80857
 -0.841903
 -0.936545
 -0.89833
 -0.924269
 -0.949448
 -0.921561
 -0.871413
 -0.855632
 -0.951478
 -0.843098
 -0.884521
 -0.900845
 -0.826295
 -0.877334
 -0.905799
 -0.881516
 -0.804974
 -0.853025
 -0.809755
 -0.868359
 -0.869956
 -0.754458
 -0.809238
 -0.809554
 -0.850362
 -0.797711
 -0.881715
 -0.927174
 -0.861762
 -0.823202
 -0.901146
 -0.924776
 -0.839816
 -0.886896
 -0.839255
 -0.793656
 -0.806675
 -0.798152
 -0.799364
 -0.850793
 -0.83093
 -0.802185
 -0.871493
 -0.819262
 -0.87278
 -0.788806
 -0.807321
 -0.840937
 -0.862761
 -0.806981
 -0.840673
 -0.846254
 -0.849877
 -0.828692
 -0.887765
 -0.836626
 -0.906487
 -0.849976
 -0.889922
 -0.870059
 -0.92005
 -0.89933
 -0.841794
 -0.835596
 -0.910683
 -0.870562
 -0.869537
 -0.897159
 -0.888732
 -0.834397
 -0.971938
 -0.928703
 -0.944625
 -0.950063
 -0.940548
 -0.960869
 -0.910047
 -0.942872
 -0.946252
 -0.949349
 -0.962383
 -0.946228
 -0.907261
 -0.990156
 -0.871029
 -0.944174

SurfaceElement_HEAT_Q 1 600 FLOAT 
 0.00886979
 0.00887642
 0.0087684
 0.00876047
 0.00889755
 0.00875458
 0.00879229
 0.00870437
 0.0089249
 0.00885161
 0.00886432
 0.00885341
 0.00864778
 0.00887822
 0.00886104
 0.00865787
 0.00876078
 0.00876307
 0.00887979
 0.00883417
 0.0090191
 0.00890607
 0.00870711
 0.0088336
 0.00870731
 0.00874899
 0.00884063
 0.0088505
 0.00890443
 0.0088351
 0.00891716
 0.00880123
 0.00880173
 0.00887563
 0.00872599
 0.00881595
 0.00870704
 0.00882346
 0.00878177
 0.00894478
 0.00893072
 0.00886106
 0.00879025
 0.00866723
 0.00881554
 0.00867259
 0.00884522
 0.00881811
 0.00869537
 0.00894746
 0.0089938
 0.00887672
 0.00883793
 0.00888335
 0.00892665
 0.00880405
 0.00878009
 0.00886833
 0.00881937
 0.00884586
 0.00884419
 0.00893826
 0.00871601
 0.00886088
 0.00884766
 0.00876357
 0.0087608
 0.00872748
 0.00884334
 0.00890526
 0.00883717
 0.00882774
 0.00877772
 0.00880125
 0.00872223
 0.00889112
 0.00888974
 0.00885561
 0.00883487
 0.00885499
 0.00890252
 0.00880594
 0.00877902
 0.00876947
 0.00876429
 0.0088116
 0.00894028
 0.00874557
 0.00887503
 0.00889543
 0.00890388
 0.00881862
 0.0088077
 0.00889049
 0.00876786
 0.00876346
 0.00879107
 0.00884819
 0.00890791
 0.0088355
 0.00896058
 0.00882668
 0.00890419
 0.00872242
 0.00885934
 0.0088492
 0.00884329
 0.00880322
 0.00890676
 0.00885327
 0.00885302
 0.00885476
 0.0088782
 0.00879051
 0.00880101
 0.0088279
 0.00892323
 0.00875902
 0.00903214
 0.00894986
 0.00894716
 0.00893356
 0.00891962
 0.00881646
 0.00868901
 0.00877821
 0.00884744
 0.00885608
 0.00881757
 0.00894387
 0.00879592
 0.00886108
 0.0087859
 0.00869867
 0.00884514
 0.00875496
 0.00879258
 0.00890023
 0.00884937
 0.00891952
 0.00895239
 0.0087669
 0.00873479
 0.00894353
 0.00894806
 0.00876264
 0.00891157
 0.00879821
 0.00889202
 0.0089602
 0.00887897
 0.00883505
 0.00882207
 0.00881863
 0.00868351
 0.0088082
 0.00869361
 0.00884144
 0.00885842
 0.00907305
 0.00894118
 0.00887948
 0.00892366
 0.00880214
 0.00883045
 0.00870144
 0.00888273
 0.00878956
 0.00874413
 0.008902
 0.00899195
 0.00885828
 0.00884327
 0.00890941
 0.00881945
 0.00882959
 0.00881375
 0.00887459
 0.00877628
 0.00898402
 0.00896618
 0.00890337
 0.00880637
 0.00895397
 0.00893759
 0.00880899
 0.00877901
 0.00886106
 0.00885209
 0.00889646
 0.00880579
 0.00876204
 0.00885819
 0.00883996
 0.00877789
 0.00868289
 0.00878148
 0.00879629
 0.00887015
 0.0088924
 0
 0
 0
 0
 0
 0
 0
 0
 0
 0
 0
 0
 0
 0
 0
 0
 0
 0
 0
 0
 0
 0
 0
 0
 0
 0
 0
 0
 0
 0
 0
 0
 0
 0
 0
 0
 0
 0
 0
 0
 0
 0
 0
 0
 0
 0
 0
 0
 0
 0
 0
 0
 0
 0
 0
 0
 0
 0
 0
 0
 0
 0
 0
 0
 0
 0
 0
 0
 0
 0
 0
 0
 0
 0
 0
 0
 0
 0
 0
 0
 0
 0
 0
 0
 0
 0
 0
 0
 0
 0
 0
 0
 0
 0
 0
 0
 0
 0
 0
 0
 0
 0
 0
 0
 0
 0
 0
 0
 0
 0
 0
 0
 0
 0
 0
 0
 0
 0
 0
 0
 0
 0
 0
 0
 0
 0
 0
 0
 0
 0
 0
 0
 0
 0
 0
 0
 0
 0
 0
 0
 0
 0
 0
 0
 0
 0
 0
 0
 0
 0
 0
 0
 0
 0
 0
 0
 0
 0
 0
 0
 0
 0
 0
 0
 0
 0
 0
 0
 0
 0
 0
 0
 0
 0
 0
 0
 0
 0
 0
 0
 0
 0
 0
 0
 0
 0
 0
 0
 0
 0
 0
 0
 0
 0
 0
 0
 0
 0
 0
 0
 -0.0100664
 -0.0093151
 -0.00944496
 -0.00956416
 -0.00942415
 -0.0097693
 -0.00880592
 -0.00905314
 -0.00959279
 -0.00939025
 -0.00920401
 -0.00898728
 -0.00957539
 -0.00907818
 -0.00841284
 -0.00936295
 -0.00816732
 -0.00975422
 -0.00928478
 -0.00890524
 -0.00865645
 -0.00845746
 -0.00874029
 -0.0090359
 -0.00853755
 -0.00949147
 -0.0091828
 -0.00863146
 -0.00876225
 -0.00910951
 -0.00856281
 -0.00874852
 -0.00827263
 -0.00827074
 -0.00812168
 -0.00834201
 -0.00808954
 -0.00881484
 -0.00834956
 -0.00870831
 -0.00894255
 -0.0082341
 -0.00847584
 -0.00815784
 -0.00849755
 -0.00857952
 -0.0085196
 -0.00843173
 -0.0084306
 -0.00890772
 -0.00873493
 -0.00890991
 -0.00800472
 -0.00852068
 -0.00871164
 -0.00885307
 -0.00810584
 -0.00836907
 -0.00861034
 -0.00788636
 -0.00782738
 -0.00840366
 -0.00890379
 -0.00859636
 -0.00842543
 -0.00882191
 -0.00847267
 -0.00903142
 -0.00845243
 -0.00829264
 -0.00891143
 -0.00893258
 -0.00834123
 -0.00878391
 -0.00864273
 -0.00919043
 -0.00853335
 -0.00878018
 -0.00881235
 -0.00902987
 -0.00902085
 -0.00974055
 -0.00876366
 -0.00908831
 -0.00921478
 -0.00937612
 -0.00875061
 -0.00834555
 -0.00916738
 -0.00851929
 -0.00928614
 -0.00966175
 -0.00934711
 -0.00935416
 -0.00936374
 -0.00950853
 -0.0102764
 -0.00936791
 -0.00918667
 -0.00962456
 -0.00913159
 -0.00934094
 -0.00993385
 -0.00915525
 -0.0096114
 -0.00936813
 -0.010101
 -0.00924503
 -0.00909194
 -0.00922576
 -0.00908315
 -0.00996745
 -0.00892797
 -0.0080857
 -0.00841903
 -0.00936545
 -0.0089833
 -0.00924269
 -0.00949448
 -0.00921561
 -0.00871413
 -0.00855632
 -0.00951478
 -0.00843098
 -0.00884521
 -0.00900845
 -0.00826295
 -0.00877334
 -0.00905799
 -0.00881516
 -0.00804974
 -0.00853025
 -0.00809755
 -0.00868359
 -0.00869956
 -0.00754458
 -0.00809238
 -0.00809554
 -0.00850362
 -0.00797711
 -0.00881715
 -0.00927174
 -0.00861762
 -0.00823202
 -0.00901146
 -0.00924776
 -0.00839816
 -0.00886896
 -0.00839255
 -0.00793656
 -0.00806675
 -0.00798152
 -0.00799364
 -0.00850793
 -0.0083093
 -0.00802185
 -0.00871493
 -0.00819262
 -0.0087278
 -0.00788806
 -0.00807321
 -0.00840937
 -0.00862761
 -0.00806981
 -0.00840673
 -0.00846254
 -0.00849877
 -0.00828692
 -0.00887765
 -0.00836626
 -0.00906487
 -0.00849976
 -0.00889922
 -0.00870059
 -0.0092005
 -0.0089933
 -0.00841794
 -0.00835596
 -0.00910683
 -0.00870562
 -0.00869537
 -0.00897159
 -0.00888732
 -0.00834397
 -0.00971938
 -0.00928703
 -0.00944625
 -0.00950063
 -0.00940548
 -0.00960869
 -0.00910047
 -0.00942872
 -0.00946252
 -0.00949349
 -0.00962383
 -0.00946228
 -0.00907261
 -0.00990156
 -0.00871029
 -0.00944174
