# vtk DataFile Version 2.0
Three-D cube surface heat flux and Q display
ASCII
DATASET UNSTRUCTURED_GRID

POINTS 602 FLOAT 
 -0.5 -0.5 -0.5
 -0.4 -0.5 -0.5
 -0.3 -0.5 -0.5
 -0.2 -0.5 -0.5
 -0.1 -0.5 -0.5
 0 -0.5 -0.5
 0.1 -0.5 -0.5
 0.2 -0.5 -0.5
 0.3 -0.5 -0.5
 0.4 -0.5 -0.5
 0.5 -0.5 -0.5
 -0.5 -0.4 -0.5
 -0.4 -0.4 -0.5
 -0.3 -0.4 -0.5
 -0.2 -0.4 -0.5
 -0.1 -0.4 -0.5
 0 -0.4 -0.5
 0.1 -0.4 -0.5
 0.2 -0.4 -0.5
 0.3 -0.4 -0.5
 0.4 -0.4 -0.5
 0.5 -0.4 -0.5
 -0.5 -0.3 -0.5
 -0.4 -0.3 -0.5
 -0.3 -0.3 -0.5
 -0.2 -0.3 -0.5
 -0.1 -0.3 -0.5
 0 -0.3 -0.5
 0.1 -0.3 -0.5
 0.2 -0.3 -0.5
 0.3 -0.3 -0.5
 0.4 -0.3 -0.5
 0.5 -0.3 -0.5
 -0.5 -0.2 -0.5
 -0.4 -0.2 -0.5
 -0.3 -0.2 -0.5
 -0.2 -0.2 -0.5
 -0.1 -0.2 -0.5
 0 -0.2 -0.5
 0.1 -0.2 -0.5
 0.2 -0.2 -0.5
 0.3 -0.2 -0.5
 0.4 -0.2 -0.5
 0.5 -0.2 -0.5
 -0.5 -0.1 -0.5
 -0.4 -0.1 -0.5
 -0.3 -0.1 -0.5
 -0.2 -0.1 -0.5
 -0.1 -0.1 -0.5
 0 -0.1 -0.5
 0.1 -0.1 -0.5
 0.2 -0.1 -0.5
 0.3 -0.1 -0.5
 0.4 -0.1 -0.5
 0.5 -0.1 -0.5
 -0.5 0 -0.5
 -0.4 0 -0.5
 -0.3 0 -0.5
 -0.2 0 -0.5
 -0.1 0 -0.5
 0 0 -0.5
 0.1 0 -0.5
 0.2 0 -0.5
 0.3 0 -0.5
 0.4 0 -0.5
 0.5 0 -0.5
 -0.5 0.1 -0.5
 -0.4 0.1 -0.5
 -0.3 0.1 -0.5
 -0.2 0.1 -0.5
 -0.1 0.1 -0.5
 0 0.1 -0.5
 0.1 0.1 -0.5
 0.2 0.1 -0.5
 0.3 0.1 -0.5
 0.4 0.1 -0.5
 0.5 0.1 -0.5
 -0.5 0.2 -0.5
 -0.4 0.2 -0.5
 -0.3 0.2 -0.5
 -0.2 0.2 -0.5
 -0.1 0.2 -0.5
 0 0.2 -0.5
 0.1 0.2 -0.5
 0.2 0.2 -0.5
 0.3 0.2 -0.5
 0.4 0.2 -0.5
 0.5 0.2 -0.5
 -0.5 0.3 -0.5
 -0.4 0.3 -0.5
 -0.3 0.3 -0.5
 -0.2 0.3 -0.5
 -0.1 0.3 -0.5
 0 0.3 -0.5
 0.1 0.3 -0.5
 0.2 0.3 -0.5
 0.3 0.3 -0.5
 0.4 0.3 -0.5
 0.5 0.3 -0.5
 -0.5 0.4 -0.5
 -0.4 0.4 -0.5
 -0.3 0.4 -0.5
 -0.2 0.4 -0.5
 -0.1 0.4 -0.5
 0 0.4 -0.5
 0.1 0.4 -0.5
 0.2 0.4 -0.5
 0.3 0.4 -0.5
 0.4 0.4 -0.5
 0.5 0.4 -0.5
 -0.5 0.5 -0.5
 -0.4 0.5 -0.5
 -0.3 0.5 -0.5
 -0.2 0.5 -0.5
 -0.1 0.5 -0.5
 0 0.5 -0.5
 0.1 0.5 -0.5
 0.2 0.5 -0.5
 0.3 0.5 -0.5
 0.4 0.5 -0.5
 0.5 0.5 -0.5
 -0.5 -0.5 0.5
 -0.4 -0.5 0.5
 -0.3 -0.5 0.5
 -0.2 -0.5 0.5
 -0.1 -0.5 0.5
 0 -0.5 0.5
 0.1 -0.5 0.5
 0.2 -0.5 0.5
 0.3 -0.5 0.5
 0.4 -0.5 0.5
 0.5 -0.5 0.5
 -0.5 -0.4 0.5
 -0.4 -0.4 0.5
 -0.3 -0.4 0.5
 -0.2 -0.4 0.5
 -0.1 -0.4 0.5
 0 -0.4 0.5
 0.1 -0.4 0.5
 0.2 -0.4 0.5
 0.3 -0.4 0.5
 0.4 -0.4 0.5
 0.5 -0.4 0.5
 -0.5 -0.3 0.5
 -0.4 -0.3 0.5
 -0.3 -0.3 0.5
 -0.2 -0.3 0.5
 -0.1 -0.3 0.5
 0 -0.3 0.5
 0.1 -0.3 0.5
 0.2 -0.3 0.5
 0.3 -0.3 0.5
 0.4 -0.3 0.5
 0.5 -0.3 0.5
 -0.5 -0.2 0.5
 -0.4 -0.2 0.5
 -0.3 -0.2 0.5
 -0.2 -0.2 0.5
 -0.1 -0.2 0.5
 0 -0.2 0.5
 0.1 -0.2 0.5
 0.2 -0.2 0.5
 0.3 -0.2 0.5
 0.4 -0.2 0.5
 0.5 -0.2 0.5
 -0.5 -0.1 0.5
 -0.4 -0.1 0.5
 -0.3 -0.1 0.5
 -0.2 -0.1 0.5
 -0.1 -0.1 0.5
 0 -0.1 0.5
 0.1 -0.1 0.5
 0.2 -0.1 0.5
 0.3 -0.1 0.5
 0.4 -0.1 0.5
 0.5 -0.1 0.5
 -0.5 0 0.5
 -0.4 0 0.5
 -0.3 0 0.5
 -0.2 0 0.5
 -0.1 0 0.5
 0 0 0.5
 0.1 0 0.5
 0.2 0 0.5
 0.3 0 0.5
 0.4 0 0.5
 0.5 0 0.5
 -0.5 0.1 0.5
 -0.4 0.1 0.5
 -0.3 0.1 0.5
 -0.2 0.1 0.5
 -0.1 0.1 0.5
 0 0.1 0.5
 0.1 0.1 0.5
 0.2 0.1 0.5
 0.3 0.1 0.5
 0.4 0.1 0.5
 0.5 0.1 0.5
 -0.5 0.2 0.5
 -0.4 0.2 0.5
 -0.3 0.2 0.5
 -0.2 0.2 0.5
 -0.1 0.2 0.5
 0 0.2 0.5
 0.1 0.2 0.5
 0.2 0.2 0.5
 0.3 0.2 0.5
 0.4 0.2 0.5
 0.5 0.2 0.5
 -0.5 0.3 0.5
 -0.4 0.3 0.5
 -0.3 0.3 0.5
 -0.2 0.3 0.5
 -0.1 0.3 0.5
 0 0.3 0.5
 0.1 0.3 0.5
 0.2 0.3 0.5
 0.3 0.3 0.5
 0.4 0.3 0.5
 0.5 0.3 0.5
 -0.5 0.4 0.5
 -0.4 0.4 0.5
 -0.3 0.4 0.5
 -0.2 0.4 0.5
 -0.1 0.4 0.5
 0 0.4 0.5
 0.1 0.4 0.5
 0.2 0.4 0.5
 0.3 0.4 0.5
 0.4 0.4 0.5
 0.5 0.4 0.5
 -0.5 0.5 0.5
 -0.4 0.5 0.5
 -0.3 0.5 0.5
 -0.2 0.5 0.5
 -0.1 0.5 0.5
 0 0.5 0.5
 0.1 0.5 0.5
 0.2 0.5 0.5
 0.3 0.5 0.5
 0.4 0.5 0.5
 0.5 0.5 0.5
 -0.5 0.5 -0.4
 -0.4 0.5 -0.4
 -0.3 0.5 -0.4
 -0.2 0.5 -0.4
 -0.1 0.5 -0.4
 0 0.5 -0.4
 0.1 0.5 -0.4
 0.2 0.5 -0.4
 0.3 0.5 -0.4
 0.4 0.5 -0.4
 0.5 0.5 -0.4
 -0.5 0.5 -0.3
 -0.4 0.5 -0.3
 -0.3 0.5 -0.3
 -0.2 0.5 -0.3
 -0.1 0.5 -0.3
 0 0.5 -0.3
 0.1 0.5 -0.3
 0.2 0.5 -0.3
 0.3 0.5 -0.3
 0.4 0.5 -0.3
 0.5 0.5 -0.3
 -0.5 0.5 -0.2
 -0.4 0.5 -0.2
 -0.3 0.5 -0.2
 -0.2 0.5 -0.2
 -0.1 0.5 -0.2
 0 0.5 -0.2
 0.1 0.5 -0.2
 0.2 0.5 -0.2
 0.3 0.5 -0.2
 0.4 0.5 -0.2
 0.5 0.5 -0.2
 -0.5 0.5 -0.1
 -0.4 0.5 -0.1
 -0.3 0.5 -0.1
 -0.2 0.5 -0.1
 -0.1 0.5 -0.1
 0 0.5 -0.1
 0.1 0.5 -0.1
 0.2 0.5 -0.1
 0.3 0.5 -0.1
 0.4 0.5 -0.1
 0.5 0.5 -0.1
 -0.5 0.5 0
 -0.4 0.5 0
 -0.3 0.5 0
 -0.2 0.5 0
 -0.1 0.5 0
 0 0.5 0
 0.1 0.5 0
 0.2 0.5 0
 0.3 0.5 0
 0.4 0.5 0
 0.5 0.5 0
 -0.5 0.5 0.1
 -0.4 0.5 0.1
 -0.3 0.5 0.1
 -0.2 0.5 0.1
 -0.1 0.5 0.1
 0 0.5 0.1
 0.1 0.5 0.1
 0.2 0.5 0.1
 0.3 0.5 0.1
 0.4 0.5 0.1
 0.5 0.5 0.1
 -0.5 0.5 0.2
 -0.4 0.5 0.2
 -0.3 0.5 0.2
 -0.2 0.5 0.2
 -0.1 0.5 0.2
 0 0.5 0.2
 0.1 0.5 0.2
 0.2 0.5 0.2
 0.3 0.5 0.2
 0.4 0.5 0.2
 0.5 0.5 0.2
 -0.5 0.5 0.3
 -0.4 0.5 0.3
 -0.3 0.5 0.3
 -0.2 0.5 0.3
 -0.1 0.5 0.3
 0 0.5 0.3
 0.1 0.5 0.3
 0.2 0.5 0.3
 0.3 0.5 0.3
 0.4 0.5 0.3
 0.5 0.5 0.3
 -0.5 0.5 0.4
 -0.4 0.5 0.4
 -0.3 0.5 0.4
 -0.2 0.5 0.4
 -0.1 0.5 0.4
 0 0.5 0.4
 0.1 0.5 0.4
 0.2 0.5 0.4
 0.3 0.5 0.4
 0.4 0.5 0.4
 0.5 0.5 0.4
 -0.5 -0.5 -0.4
 -0.4 -0.5 -0.4
 -0.3 -0.5 -0.4
 -0.2 -0.5 -0.4
 -0.1 -0.5 -0.4
 0 -0.5 -0.4
 0.1 -0.5 -0.4
 0.2 -0.5 -0.4
 0.3 -0.5 -0.4
 0.4 -0.5 -0.4
 0.5 -0.5 -0.4
 -0.5 -0.5 -0.3
 -0.4 -0.5 -0.3
 -0.3 -0.5 -0.3
 -0.2 -0.5 -0.3
 -0.1 -0.5 -0.3
 0 -0.5 -0.3
 0.1 -0.5 -0.3
 0.2 -0.5 -0.3
 0.3 -0.5 -0.3
 0.4 -0.5 -0.3
 0.5 -0.5 -0.3
 -0.5 -0.5 -0.2
 -0.4 -0.5 -0.2
 -0.3 -0.5 -0.2
 -0.2 -0.5 -0.2
 -0.1 -0.5 -0.2
 0 -0.5 -0.2
 0.1 -0.5 -0.2
 0.2 -0.5 -0.2
 0.3 -0.5 -0.2
 0.4 -0.5 -0.2
 0.5 -0.5 -0.2
 -0.5 -0.5 -0.1
 -0.4 -0.5 -0.1
 -0.3 -0.5 -0.1
 -0.2 -0.5 -0.1
 -0.1 -0.5 -0.1
 0 -0.5 -0.1
 0.1 -0.5 -0.1
 0.2 -0.5 -0.1
 0.3 -0.5 -0.1
 0.4 -0.5 -0.1
 0.5 -0.5 -0.1
 -0.5 -0.5 0
 -0.4 -0.5 0
 -0.3 -0.5 0
 -0.2 -0.5 0
 -0.1 -0.5 0
 0 -0.5 0
 0.1 -0.5 0
 0.2 -0.5 0
 0.3 -0.5 0
 0.4 -0.5 0
 0.5 -0.5 0
 -0.5 -0.5 0.1
 -0.4 -0.5 0.1
 -0.3 -0.5 0.1
 -0.2 -0.5 0.1
 -0.1 -0.5 0.1
 0 -0.5 0.1
 0.1 -0.5 0.1
 0.2 -0.5 0.1
 0.3 -0.5 0.1
 0.4 -0.5 0.1
 0.5 -0.5 0.1
 -0.5 -0.5 0.2
 -0.4 -0.5 0.2
 -0.3 -0.5 0.2
 -0.2 -0.5 0.2
 -0.1 -0.5 0.2
 0 -0.5 0.2
 0.1 -0.5 0.2
 0.2 -0.5 0.2
 0.3 -0.5 0.2
 0.4 -0.5 0.2
 0.5 -0.5 0.2
 -0.5 -0.5 0.3
 -0.4 -0.5 0.3
 -0.3 -0.5 0.3
 -0.2 -0.5 0.3
 -0.1 -0.5 0.3
 0 -0.5 0.3
 0.1 -0.5 0.3
 0.2 -0.5 0.3
 0.3 -0.5 0.3
 0.4 -0.5 0.3
 0.5 -0.5 0.3
 -0.5 -0.5 0.4
 -0.4 -0.5 0.4
 -0.3 -0.5 0.4
 -0.2 -0.5 0.4
 -0.1 -0.5 0.4
 0 -0.5 0.4
 0.1 -0.5 0.4
 0.2 -0.5 0.4
 0.3 -0.5 0.4
 0.4 -0.5 0.4
 0.5 -0.5 0.4
 -0.5 -0.4 -0.4
 -0.5 -0.3 -0.4
 -0.5 -0.2 -0.4
 -0.5 -0.1 -0.4
 -0.5 0 -0.4
 -0.5 0.1 -0.4
 -0.5 0.2 -0.4
 -0.5 0.3 -0.4
 -0.5 0.4 -0.4
 -0.5 -0.4 -0.3
 -0.5 -0.3 -0.3
 -0.5 -0.2 -0.3
 -0.5 -0.1 -0.3
 -0.5 0 -0.3
 -0.5 0.1 -0.3
 -0.5 0.2 -0.3
 -0.5 0.3 -0.3
 -0.5 0.4 -0.3
 -0.5 -0.4 -0.2
 -0.5 -0.3 -0.2
 -0.5 -0.2 -0.2
 -0.5 -0.1 -0.2
 -0.5 0 -0.2
 -0.5 0.1 -0.2
 -0.5 0.2 -0.2
 -0.5 0.3 -0.2
 -0.5 0.4 -0.2
 -0.5 -0.4 -0.1
 -0.5 -0.3 -0.1
 -0.5 -0.2 -0.1
 -0.5 -0.1 -0.1
 -0.5 0 -0.1
 -0.5 0.1 -0.1
 -0.5 0.2 -0.1
 -0.5 0.3 -0.1
 -0.5 0.4 -0.1
 -0.5 -0.4 0
 -0.5 -0.3 0
 -0.5 -0.2 0
 -0.5 -0.1 0
 -0.5 0 0
 -0.5 0.1 0
 -0.5 0.2 0
 -0.5 0.3 0
 -0.5 0.4 0
 -0.5 -0.4 0.1
 -0.5 -0.3 0.1
 -0.5 -0.2 0.1
 -0.5 -0.1 0.1
 -0.5 0 0.1
 -0.5 0.1 0.1
 -0.5 0.2 0.1
 -0.5 0.3 0.1
 -0.5 0.4 0.1
 -0.5 -0.4 0.2
 -0.5 -0.3 0.2
 -0.5 -0.2 0.2
 -0.5 -0.1 0.2
 -0.5 0 0.2
 -0.5 0.1 0.2
 -0.5 0.2 0.2
 -0.5 0.3 0.2
 -0.5 0.4 0.2
 -0.5 -0.4 0.3
 -0.5 -0.3 0.3
 -0.5 -0.2 0.3
 -0.5 -0.1 0.3
 -0.5 0 0.3
 -0.5 0.1 0.3
 -0.5 0.2 0.3
 -0.5 0.3 0.3
 -0.5 0.4 0.3
 -0.5 -0.4 0.4
 -0.5 -0.3 0.4
 -0.5 -0.2 0.4
 -0.5 -0.1 0.4
 -0.5 0 0.4
 -0.5 0.1 0.4
 -0.5 0.2 0.4
 -0.5 0.3 0.4
 -0.5 0.4 0.4
 0.5 -0.4 -0.4
 0.5 -0.3 -0.4
 0.5 -0.2 -0.4
 0.5 -0.1 -0.4
 0.5 0 -0.4
 0.5 0.1 -0.4
 0.5 0.2 -0.4
 0.5 0.3 -0.4
 0.5 0.4 -0.4
 0.5 -0.4 -0.3
 0.5 -0.3 -0.3
 0.5 -0.2 -0.3
 0.5 -0.1 -0.3
 0.5 0 -0.3
 0.5 0.1 -0.3
 0.5 0.2 -0.3
 0.5 0.3 -0.3
 0.5 0.4 -0.3
 0.5 -0.4 -0.2
 0.5 -0.3 -0.2
 0.5 -0.2 -0.2
 0.5 -0.1 -0.2
 0.5 0 -0.2
 0.5 0.1 -0.2
 0.5 0.2 -0.2
 0.5 0.3 -0.2
 0.5 0.4 -0.2
 0.5 -0.4 -0.1
 0.5 -0.3 -0.1
 0.5 -0.2 -0.1
 0.5 -0.1 -0.1
 0.5 0 -0.1
 0.5 0.1 -0.1
 0.5 0.2 -0.1
 0.5 0.3 -0.1
 0.5 0.4 -0.1
 0.5 -0.4 0
 0.5 -0.3 0
 0.5 -0.2 0
 0.5 -0.1 0
 0.5 0 0
 0.5 0.1 0
 0.5 0.2 0
 0.5 0.3 0
 0.5 0.4 0
 0.5 -0.4 0.1
 0.5 -0.3 0.1
 0.5 -0.2 0.1
 0.5 -0.1 0.1
 0.5 0 0.1
 0.5 0.1 0.1
 0.5 0.2 0.1
 0.5 0.3 0.1
 0.5 0.4 0.1
 0.5 -0.4 0.2
 0.5 -0.3 0.2
 0.5 -0.2 0.2
 0.5 -0.1 0.2
 0.5 0 0.2
 0.5 0.1 0.2
 0.5 0.2 0.2
 0.5 0.3 0.2
 0.5 0.4 0.2
 0.5 -0.4 0.3
 0.5 -0.3 0.3
 0.5 -0.2 0.3
 0.5 -0.1 0.3
 0.5 0 0.3
 0.5 0.1 0.3
 0.5 0.2 0.3
 0.5 0.3 0.3
 0.5 0.4 0.3
 0.5 -0.4 0.4
 0.5 -0.3 0.4
 0.5 -0.2 0.4
 0.5 -0.1 0.4
 0.5 0 0.4
 0.5 0.1 0.4
 0.5 0.2 0.4
 0.5 0.3 0.4
 0.5 0.4 0.4

CELLS 600 3000
 4 0 1 12 11
 4 1 2 13 12
 4 2 3 14 13
 4 3 4 15 14
 4 4 5 16 15
 4 5 6 17 16
 4 6 7 18 17
 4 7 8 19 18
 4 8 9 20 19
 4 9 10 21 20
 4 11 12 23 22
 4 12 13 24 23
 4 13 14 25 24
 4 14 15 26 25
 4 15 16 27 26
 4 16 17 28 27
 4 17 18 29 28
 4 18 19 30 29
 4 19 20 31 30
 4 20 21 32 31
 4 22 23 34 33
 4 23 24 35 34
 4 24 25 36 35
 4 25 26 37 36
 4 26 27 38 37
 4 27 28 39 38
 4 28 29 40 39
 4 29 30 41 40
 4 30 31 42 41
 4 31 32 43 42
 4 33 34 45 44
 4 34 35 46 45
 4 35 36 47 46
 4 36 37 48 47
 4 37 38 49 48
 4 38 39 50 49
 4 39 40 51 50
 4 40 41 52 51
 4 41 42 53 52
 4 42 43 54 53
 4 44 45 56 55
 4 45 46 57 56
 4 46 47 58 57
 4 47 48 59 58
 4 48 49 60 59
 4 49 50 61 60
 4 50 51 62 61
 4 51 52 63 62
 4 52 53 64 63
 4 53 54 65 64
 4 55 56 67 66
 4 56 57 68 67
 4 57 58 69 68
 4 58 59 70 69
 4 59 60 71 70
 4 60 61 72 71
 4 61 62 73 72
 4 62 63 74 73
 4 63 64 75 74
 4 64 65 76 75
 4 66 67 78 77
 4 67 68 79 78
 4 68 69 80 79
 4 69 70 81 80
 4 70 71 82 81
 4 71 72 83 82
 4 72 73 84 83
 4 73 74 85 84
 4 74 75 86 85
 4 75 76 87 86
 4 77 78 89 88
 4 78 79 90 89
 4 79 80 91 90
 4 80 81 92 91
 4 81 82 93 92
 4 82 83 94 93
 4 83 84 95 94
 4 84 85 96 95
 4 85 86 97 96
 4 86 87 98 97
 4 88 89 100 99
 4 89 90 101 100
 4 90 91 102 101
 4 91 92 103 102
 4 92 93 104 103
 4 93 94 105 104
 4 94 95 106 105
 4 95 96 107 106
 4 96 97 108 107
 4 97 98 109 108
 4 99 100 111 110
 4 100 101 112 111
 4 101 102 113 112
 4 102 103 114 113
[...]
CELL_DATA 600
FIELD DOMAIN 2
SurfaceElement_HEAT_FLUX_q 1 600 FLOAT
 59124
 57337.1
 58636.9
 57638.8
 58725.7
 58285.6
 58567.2
 57847.6
 58687.8
 59763.9
 61890.7
 61962.6
 61446.7
 60174.5
 62847.9
 62218
 61341.9
 59867.6
 60355.3
 62460.5
 63312.3
 62063.1
 62548
 63434.7
 63460.3
 62396.9
 62913
 62614.5
 63251.5
 62737.4
 64734.6
 62528.3
 64025
 63711.8
 63601.5
 64177
 63404
 62296.4
 61771.4
 62537.2
 63178.3
 62545.9
 63452
 63130.4
 62179.7
 64546.2
 63577.3
 63935.1
 62806.8
 61259.5
 60507.6
 62772.9
 61040.4
 62815.3
 61234.7
 61018.1
 60936.1
 60621.2
 60709.2
 62168
 59003.8
 57432.7
 59961.7
 58549
 60506.4
 59319.7
 59016
 61002.6
 58921.1
 61163.2
 58057.9
 56251.9
 55539
 55974.4
 56050.4
 55893.5
 56534.7
 56652.4
 57225.5
 57997
 54806.2
 51860.7
 52080.3
 51345.9
 53474
 52195.7
 51726.2
 51326.9
 52603
 53904
 45983.4
 46515.4
 44439.6
 47472.2
 46072.5
 44317.3
 43433.4
 42542.2
 44767.3
 46968.7
 -26536.9
 -27962.3
 -27718.5
 -28117.4
 -28344
 -28880.3
 -27908.6
 -27726.6
 -27707.4
 -27289.6
 -26542.3
 -28728.4
 -28055.4
 -28181.6
 -27694.9
 -27276.9
 -28431.9
 -28373.3
 -28202.3
 -28366.4
 -27243.4
 -27334
 -27210.3
 -26742.4
 -25967.6
 -27383
 -27363.9
 -27537.5
 -26184.9
 -26827.9
 -26912.8
 -26920.6
 -27771.5
 -26679.8
 -26179.4
 -25640.3
 -27158.4
 -27402.6
 -28009.8
 -27990.3
 -28060.2
 -26133.2
 -27677
 -26388.2
 -26977.7
 -26493
 -26698.4
 -27171
 -28074.1
 -28573.5
 -28935.2
 -28618.2
 -27649.8
 -27904.6
 -28177.4
 -26534
 -28314.3
 -29217.6
 -28205.7
 -28256.5
 -29535.1
 -29840.7
 -29687.8
 -28763.8
 -29033.1
 -27527.9
 -29817.9
 -29502.8
 -29449.9
 -30129.7
 -31012.7
 -30516.5
 -30109.2
 -31483.1
 -30356.1
 -29884.3
 -30394.1
 -30906.9
 -30549.3
 -30722.2
 -32580.9
 -32480.8
 -32961.9
 -33926.2
 -32263.8
 -33701.1
 -32081.4
 -33801.8
 -32929.1
 -31111.8
 -34686.3
 -35387.5
 -35117.2
 -36291.9
 -35183.2
 -36117.4
 -35512.5
 -36232.8
 -34650.5
 -34311.8
 8200.66
 8066.34
 8049.05
 8091.6
 8026.31
 8031.77
 8077.78
 8056.19
 8090.7
 7990.75
 8039.52
 8008.11
 8082.9
 8082.77
 8088.52
 8085.15
 8035.14
 8073.8
 8026.81
 8093.05
 7967.59
 7968.99
 7967.87
 7976.91
 8029.96
 7989.42
 7956.64
 7990.9
 7978.99
 7963.59
 7867.16
 7883.67
 7919.48
 7933.65
 7947.01
 7972.14
 7943.26
 7860.46
 7869.23
 8003.87
 7805.25
 7754.09
 7836.95
 7779.82
 7899.58
 7859.17
 7818.33
 7771.95
 7744.31
 7763.13
 7634.94
 7695.36
 7661.75
 7717.65
 7777.2
 7731.21
 7719.12
 7635.35
 7670.25
 7634.36
 7625.97
 7435.63
 7468.29
 7595.23
 7624.37
 7688.37
 7528.13
 7477.56
 7491.68
 7545.54
 7335.71
 7277.03
 7322.6
 7335.94
 7308.21
 7282.69
 7253.31
 7299.36
 7424.57
 7368.85
 7112.39
 7128.14
 7087.77
 7084.75
 7020.4
 7134.68
 7121.36
 7099.7
 7080.43
 7244.13
 6844.68
 6963.92
 6810.18
 6655.66
 6855.88
 6813.07
 6893.3
 6850.42
 6860
 6946.15
 42797.6
 42802.7
 42753.4
 42852.5
 42817.8
 42795.8
 42806.2
 42754.5
 42802.6
 42796.7
 42796.9
 42770.8
 42773.3
 42809.4
 42829.6
 42827.8
 42815.7
 42838.1
 42783.1
 42792.2
 42802.5
 42770.3
 42774.1
 42777.5
 42780.4
 42785.8
 42765.3
 42789.4
 42760.2
 42798.6
 42700.4
 42720.8
 42763.8
 42787.5
 42728.1
 42789.5
 42764.6
 42724.7
 42744.9
 42726.2
 42639
 42566.9
 42697.8
 42631.5
 42725.4
 42770.8
 42617.6
 42582.7
 42599.1
 42653.7
 42438.9
 42553.4
 42538.4
 42482.5
 42527.7
 42564.8
 42560.6
 42445.3
 42505.9
 42522.6
 42394.9
 42334.6
 42324
 42400.7
 42356.3
 42376.8
 42317.9
 42377.6
 42299.7
 42354.7
 42122.4
 42142.9
 42119.1
 42167.6
 42136.1
 42111.2
 42113.9
 42139.3
 42082.8
 42260.4
 41997.8
 41923.8
 41827
 41821.5
 41917.8
 41881.5
 41924.1
 41929.3
 41935.4
 42033.4
 41677.7
 41654.2
 41648.4
 41516.8
 41591.5
 41555.1
 41748.8
 41599.7
 41544.3
 41729.3
 -9650.3
 -9506.46
 -9383.49
 -9346.15
 -9627.45
 -9479.63
 -9755.17
 -10018.8
 -10351.1
 -11566.5
 -9957.11
 -9686.55
 -9761.9
 -9568.43
 -9494.3
 -9709.63
 -10167.8
 -10674.3
 -11051.5
 -11995.3
 -10311.4
 -10041.8
 -9872
 -9789.94
 -9829.47
 -9908.58
 -10882
 -11105.7
 -11652
 -12641.4
 -10710.7
 -10323.2
 -10277.8
 -10361.9
 -10229.2
 -10365.9
 -10681
 -11098
 -11848.4
 -12531.7
 -11356.5
 -10812.4
 -10678.6
 -10124.8
 -10436.1
 -10988
 -11281.3
 -11885.9
 -12342.2
 -13137.4
 -11409.7
 -10985.8
 -11017.5
 -11552.2
 -11327.8
 -11568.7
 -11974.9
 -12541.4
 -12914.7
 -13710.6
 -12296.5
 -11883.8
 -11620.6
 -11666.7
 -12012.7
 -12261.1
 -12535.5
 -12473.3
 -13138.7
 -14167.1
 -12665.6
 -12427.1
 -12212.8
 -12660.1
 -13017.3
 -13095.2
 -13200.7
 -13428.8
 -13997.8
 -14720.1
 -13312.7
 -13765.2
 -13334.3
 -13679.1
 -13264.5
 -13683.3
 -13604.3
 -14696.5
 -14874.9
 -15532.9
 -14228.8
 -13939.1
 -14154.9
 -14086.9
 -14389.6
 -14562.5
 -14918.4
 -15101
 -15895.7
 -16140.6
 -9999.04
 -9459.46
 -9474.66
 -9406.5
 -9331.89
 -9437.86
 -9671.99
 -9996.51
 -10362.3
 -11565.9
 -9887.57
 -9702.38
 -9539.37
 -9478.11
 -9656.61
 -9915.09
 -10336.3
 -10464
 -11100.9
 -12182.3
 -10296.5
 -9903.22
 -9775.98
 -9746.53
 -9735.91
 -10457.6
 -10526.7
 -11002.9
 -11649.9
 -12587.1
 -10469.4
 -10402.8
 -10381
 -10151.6
 -10154.8
 -10134.6
 -10544.6
 -11198.9
 -12317.4
 -13233.2
 -10951.2
 -10911.1
 -10639.8
 -10348.3
 -10357.6
 -10654
 -11024.5
 -11730.4
 -12492.3
 -13033.7
 -11127.7
 -11382
 -10952.9
 -11337.7
 -11172.6
 -11314.6
 -12095.3
 -12262.5
 -12945.1
 -13618.2
 -12177.4
 -11924
 -11881.7
 -11681.6
 -11736
 -12025.1
 -12394.9
 -12754.3
 -13633.9
 -14403.7
 -12810.7
 -12726.7
 -12776.3
 -12581.7
 -12541.1
 -12396.1
 -13193.3
 -13598.5
 -14320
 -15240.3
 -13626.3
 -13193.8
 -13263.5
 -13339.1
 -13087.6
 -13866.2
 -13810.2
 -14283.8
 -14972.9
 -15622.9
 -14787.2
 -14650.2
 -14199.2
 -14316.3
 -14599.8
 -14493
 -14978.1
 -15082
 -15756.1
 -16355

SurfaceElement_HEAT_Q 1 600 FLOAT 
 591.24
 573.371
 586.369
 576.388
 587.257
 582.856
 585.672
 578.476
 586.878
 597.639
 618.907
 619.626
 614.467
 601.745
 628.479
 622.18
 613.419
 598.676
 603.553
 624.605
 633.123
 620.631
 625.48
 634.347
 634.603
 623.969
 629.13
 626.145
 632.515
 627.374
 647.346
 625.283
 640.25
 637.118
 636.015
 641.77
 634.04
 622.964
 617.714
 625.372
 631.783
 625.459
 634.52
 631.304
 621.797
 645.462
 635.773
 639.351
 628.068
 612.595
 605.076
 627.729
 610.404
 628.153
 612.347
 610.181
 609.361
 606.212
 607.092
 621.68
 590.038
 574.327
 599.617
 585.49
 605.064
 593.197
 590.16
 610.026
 589.211
 611.632
 580.579
 562.519
 555.39
 559.744
 560.504
 558.935
 565.347
 566.524
 572.255
 579.97
 548.062
 518.607
 520.803
 513.459
 534.74
 521.957
 517.262
 513.269
 526.03
 539.04
 459.834
 465.154
 444.396
 474.722
 460.725
 443.173
 434.334
 425.422
 447.673
 469.687
 -265.369
 -279.623
 -277.185
 -281.174
 -283.44
 -288.803
 -279.086
 -277.266
 -277.074
 -272.896
 -265.423
 -287.284
 -280.554
 -281.816
 -276.949
 -272.769
 -284.319
 -283.733
 -282.023
 -283.664
 -272.434
 -273.34
 -272.103
 -267.424
 -259.676
 -273.83
 -273.639
 -275.375
 -261.849
 -268.279
 -269.128
 -269.206
 -277.715
 -266.798
 -261.794
 -256.403
 -271.584
 -274.026
 -280.098
 -279.903
 -280.602
 -261.332
 -276.77
 -263.882
 -269.777
 -264.93
 -266.984
 -271.71
 -280.741
 -285.735
 -289.352
 -286.182
 -276.498
 -279.046
 -281.774
 -265.34
 -283.143
 -292.176
 -282.057
 -282.565
 -295.351
 -298.407
 -296.878
 -287.638
 -290.331
 -275.279
 -298.179
 -295.028
 -294.499
 -301.297
 -310.127
 -305.165
 -301.092
 -314.831
 -303.561
 -298.843
 -303.941
 -309.069
 -305.493
 -307.222
 -325.809
 -324.808
 -329.619
 -339.262
 -322.638
 -337.011
 -320.814
 -338.018
 -329.291
 -311.118
 -346.863
 -353.875
 -351.172
 -362.919
 -351.832
 -361.174
 -355.125
 -362.328
 -346.505
 -343.118
 82.0066
 80.6634
 80.4905
 80.916
 80.2631
 80.3177
 80.7778
 80.5619
 80.907
 79.9075
 80.3952
 80.0811
 80.829
 80.8277
 80.8852
 80.8515
 80.3514
 80.738
 80.2681
 80.9305
 79.6759
 79.6899
 79.6787
 79.7691
 80.2996
 79.8942
 79.5664
 79.909
 79.7899
 79.6359
 78.6716
 78.8367
 79.1948
 79.3365
 79.4701
 79.7214
 79.4326
 78.6046
 78.6923
 80.0387
 78.0525
 77.5409
 78.3695
 77.7982
 78.9958
 78.5917
 78.1833
 77.7195
 77.4431
 77.6313
 76.3494
 76.9536
 76.6175
 77.1765
 77.772
 77.3121
 77.1912
 76.3535
 76.7025
 76.3436
 76.2597
 74.3563
 74.6829
 75.9523
 76.2437
 76.8837
 75.2813
 74.7756
 74.9168
 75.4554
 73.3571
 72.7703
 73.226
 73.3594
 73.0821
 72.8269
 72.5331
 72.9936
 74.2457
 73.6885
 71.1239
 71.2814
 70.8777
 70.8475
 70.204
 71.3468
 71.2136
 70.997
 70.8043
 72.4413
 68.4468
 69.6392
 68.1018
 66.5566
 68.5588
 68.1307
 68.933
 68.5042
 68.6
 69.4615
 427.976
 428.027
 427.534
 428.525
 428.178
 427.958
 428.062
 427.545
 428.026
 427.967
 427.969
 427.708
 427.733
 428.094
 428.296
 428.278
 428.157
 428.381
 427.831
 427.922
 428.025
 427.703
 427.741
 427.775
 427.804
 427.858
 427.653
 427.894
 427.602
 427.986
 427.004
 427.208
 427.638
 427.875
 427.281
 427.895
 427.646
 427.247
 427.449
 427.262
 426.39
 425.669
 426.978
 426.315
 427.254
 427.708
 426.176
 425.827
 425.991
 426.537
 424.389
 425.534
 425.384
 424.825
 425.277
 425.648
 425.606
 424.453
 425.059
 425.226
 423.949
 423.346
 423.24
 424.007
 423.563
 423.768
 423.179
 423.776
 422.997
 423.547
 421.224
 421.429
 421.191
 421.676
 421.361
 421.112
 421.139
 421.393
 420.828
 422.604
 419.978
 419.238
 418.27
 418.215
 419.178
 418.815
 419.241
 419.293
 419.354
 420.334
 416.777
 416.542
 416.484
 415.168
 415.915
 415.551
 417.488
 415.997
 415.443
 417.293
 -96.503
 -95.0646
 -93.8349
 -93.4615
 -96.2745
 -94.7963
 -97.5517
 -100.188
 -103.511
 -115.665
 -99.5711
 -96.8655
 -97.619
 -95.6843
 -94.943
 -97.0963
 -101.678
 -106.743
 -110.515
 -119.953
 -103.114
 -100.418
 -98.72
 -97.8994
 -98.2947
 -99.0858
 -108.82
 -111.057
 -116.52
 -126.414
 -107.107
 -103.232
 -102.778
 -103.619
 -102.292
 -103.659
 -106.81
 -110.98
 -118.484
 -125.317
 -113.565
 -108.124
 -106.786
 -101.248
 -104.361
 -109.88
 -112.813
 -118.859
 -123.422
 -131.374
 -114.097
 -109.858
 -110.175
 -115.522
 -113.278
 -115.687
 -119.749
 -125.414
 -129.147
 -137.106
 -122.965
 -118.838
 -116.206
 -116.667
 -120.127
 -122.611
 -125.355
 -124.733
 -131.387
 -141.671
 -126.656
 -124.271
 -122.128
 -126.601
 -130.173
 -130.952
 -132.007
 -134.288
 -139.978
 -147.201
 -133.127
 -137.652
 -133.343
 -136.791
 -132.645
 -136.833
 -136.043
 -146.965
 -148.749
 -155.329
 -142.288
 -139.391
 -141.549
 -140.869
 -143.896
 -145.625
 -149.184
 -151.01
 -158.957
 -161.406
 -99.9904
 -94.5946
 -94.7466
 -94.065
 -93.3189
 -94.3786
 -96.7199
 -99.9651
 -103.623
 -115.659
 -98.8757
 -97.0238
 -95.3937
 -94.7811
 -96.5661
 -99.1509
 -103.363
 -104.64
 -111.009
 -121.823
 -102.965
 -99.0322
 -97.7598
 -97.4653
 -97.3591
 -104.576
 -105.267
 -110.029
 -116.499
 -125.871
 -104.694
 -104.028
 -103.81
 -101.516
 -101.548
 -101.346
 -105.446
 -111.989
 -123.174
 -132.332
 -109.512
 -109.111
 -106.398
 -103.483
 -103.576
 -106.54
 -110.245
 -117.304
 -124.923
 -130.337
 -111.277
 -113.82
 -109.529
 -113.377
 -111.726
 -113.146
 -120.953
 -122.625
 -129.451
 -136.182
 -121.774
 -119.24
 -118.817
 -116.816
 -117.36
 -120.251
 -123.949
 -127.543
 -136.339
 -144.037
 -128.107
 -127.267
 -127.763
 -125.817
 -125.411
 -123.961
 -131.933
 -135.985
 -143.2
 -152.403
 -136.263
 -131.938
 -132.635
 -133.391
 -130.876
 -138.662
 -138.102
 -142.838
 -149.729
 -156.229
 -147.872
 -146.502
 -141.992
 -143.163
 -145.998
 -144.93
 -149.781
 -150.82
 -157.561
 -163.55
