# vtk DataFile Version 2.0
Three-D cube divergence of heat flux and Q in volume elements
ASCII
DATASET UNSTRUCTURED_GRID

POINTS  1331  FLOAT
 -0.5 -0.5 -0.5
 -0.4 -0.5 -0.5
 -0.3 -0.5 -0.5
 -0.2 -0.5 -0.5
 -0.1 -0.5 -0.5
 0 -0.5 -0.5
 0.1 -0.5 -0.5
 0.2 -0.5 -0.5
 0.3 -0.5 -0.5
 0.4 -0.5 -0.5
 0.5 -0.5 -0.5
 -0.5 -0.4 -0.5
 -0.4 -0.4 -0.5
 -0.3 -0.4 -0.5
 -0.2 -0.4 -0.5
 -0.1 -0.4 -0.5
 0 -0.4 -0.5
 0.1 -0.4 -0.5
 0.2 -0.4 -0.5
 0.3 -0.4 -0.5
 0.4 -0.4 -0.5
 0.5 -0.4 -0.5
 -0.5 -0.3 -0.5
 -0.4 -0.3 -0.5
 -0.3 -0.3 -0.5
 -0.2 -0.3 -0.5
 -0.1 -0.3 -0.5
 0 -0.3 -0.5
 0.1 -0.3 -0.5
 0.2 -0.3 -0.5
 0.3 -0.3 -0.5
 0.4 -0.3 -0.5
 0.5 -0.3 -0.5
 -0.5 -0.2 -0.5
 -0.4 -0.2 -0.5
 -0.3 -0.2 -0.5
 -0.2 -0.2 -0.5
 -0.1 -0.2 -0.5
 0 -0.2 -0.5
 0.1 -0.2 -0.5
 0.2 -0.2 -0.5
 0.3 -0.2 -0.5
 0.4 -0.2 -0.5
 0.5 -0.2 -0.5
 -0.5 -0.1 -0.5
 -0.4 -0.1 -0.5
 -0.3 -0.1 -0.5
 -0.2 -0.1 -0.5
 -0.1 -0.1 -0.5
 0 -0.1 -0.5
 0.1 -0.1 -0.5
 0.2 -0.1 -0.5
 0.3 -0.1 -0.5
 0.4 -0.1 -0.5
 0.5 -0.1 -0.5
 -0.5 0 -0.5
 -0.4 0 -0.5
 -0.3 0 -0.5
 -0.2 0 -0.5
 -0.1 0 -0.5
 0 0 -0.5
 0.1 0 -0.5
 0.2 0 -0.5
 0.3 0 -0.5
 0.4 0 -0.5
 0.5 0 -0.5
 -0.5 0.1 -0.5
 -0.4 0.1 -0.5
 -0.3 0.1 -0.5
 -0.2 0.1 -0.5
 -0.1 0.1 -0.5
 0 0.1 -0.5
 0.1 0.1 -0.5
 0.2 0.1 -0.5
 0.3 0.1 -0.5
 0.4 0.1 -0.5
 0.5 0.1 -0.5
 -0.5 0.2 -0.5
 -0.4 0.2 -0.5
 -0.3 0.2 -0.5
 -0.2 0.2 -0.5
 -0.1 0.2 -0.5
 0 0.2 -0.5
 0.1 0.2 -0.5
 0.2 0.2 -0.5
 0.3 0.2 -0.5
 0.4 0.2 -0.5
 0.5 0.2 -0.5
 -0.5 0.3 -0.5
 -0.4 0.3 -0.5
 -0.3 0.3 -0.5
 -0.2 0.3 -0.5
 -0.1 0.3 -0.5
 0 0.3 -0.5
 0.1 0.3 -0.5
 0.2 0.3 -0.5
 0.3 0.3 -0.5
 0.4 0.3 -0.5
 0.5 0.3 -0.5
 -0.5 0.4 -0.5
 -0.4 0.4 -0.5
 -0.3 0.4 -0.5
 -0.2 0.4 -0.5
 -0.1 0.4 -0.5
 0 0.4 -0.5
 0.1 0.4 -0.5
 0.2 0.4 -0.5
 0.3 0.4 -0.5
 0.4 0.4 -0.5
 0.5 0.4 -0.5
 -0.5 0.5 -0.5
 -0.4 0.5 -0.5
 -0.3 0.5 -0.5
 -0.2 0.5 -0.5
 -0.1 0.5 -0.5
 0 0.5 -0.5
 0.1 0.5 -0.5
 0.2 0.5 -0.5
 0.3 0.5 -0.5
 0.4 0.5 -0.5
 0.5 0.5 -0.5
 -0.5 -0.5 -0.4
 -0.4 -0.5 -0.4
 -0.3 -0.5 -0.4
 -0.2 -0.5 -0.4
 -0.1 -0.5 -0.4
 0 -0.5 -0.4
 0.1 -0.5 -0.4
 0.2 -0.5 -0.4
 0.3 -0.5 -0.4
 0.4 -0.5 -0.4
 0.5 -0.5 -0.4
 -0.5 -0.4 -0.4
 -0.4 -0.4 -0.4
 -0.3 -0.4 -0.4
 -0.2 -0.4 -0.4
 -0.1 -0.4 -0.4
 0 -0.4 -0.4
 0.1 -0.4 -0.4
 0.2 -0.4 -0.4
 0.3 -0.4 -0.4
 0.4 -0.4 -0.4
 0.5 -0.4 -0.4
 -0.5 -0.3 -0.4
 -0.4 -0.3 -0.4
 -0.3 -0.3 -0.4
 -0.2 -0.3 -0.4
 -0.1 -0.3 -0.4
 0 -0.3 -0.4
 0.1 -0.3 -0.4
 0.2 -0.3 -0.4
 0.3 -0.3 -0.4
 0.4 -0.3 -0.4
 0.5 -0.3 -0.4
 -0.5 -0.2 -0.4
 -0.4 -0.2 -0.4
 -0.3 -0.2 -0.4
 -0.2 -0.2 -0.4
 -0.1 -0.2 -0.4
 0 -0.2 -0.4
 0.1 -0.2 -0.4
 0.2 -0.2 -0.4
 0.3 -0.2 -0.4
 0.4 -0.2 -0.4
 0.5 -0.2 -0.4
 -0.5 -0.1 -0.4
 -0.4 -0.1 -0.4
 -0.3 -0.1 -0.4
 -0.2 -0.1 -0.4
 -0.1 -0.1 -0.4
 0 -0.1 -0.4
 0.1 -0.1 -0.4
 0.2 -0.1 -0.4
 0.3 -0.1 -0.4
 0.4 -0.1 -0.4
 0.5 -0.1 -0.4
 -0.5 0 -0.4
 -0.4 0 -0.4
 -0.3 0 -0.4
 -0.2 0 -0.4
 -0.1 0 -0.4
 0 0 -0.4
 0.1 0 -0.4
 0.2 0 -0.4
 0.3 0 -0.4
 0.4 0 -0.4
 0.5 0 -0.4
 -0.5 0.1 -0.4
 -0.4 0.1 -0.4
 -0.3 0.1 -0.4
 -0.2 0.1 -0.4
 -0.1 0.1 -0.4
 0 0.1 -0.4
 0.1 0.1 -0.4
 0.2 0.1 -0.4
 0.3 0.1 -0.4
 0.4 0.1 -0.4
 0.5 0.1 -0.4
 -0.5 0.2 -0.4
 -0.4 0.2 -0.4
 -0.3 0.2 -0.4
 -0.2 0.2 -0.4
 -0.1 0.2 -0.4
 0 0.2 -0.4
 0.1 0.2 -0.4
 0.2 0.2 -0.4
 0.3 0.2 -0.4
 0.4 0.2 -0.4
 0.5 0.2 -0.4
 -0.5 0.3 -0.4
 -0.4 0.3 -0.4
 -0.3 0.3 -0.4
 -0.2 0.3 -0.4
 -0.1 0.3 -0.4
 0 0.3 -0.4
 0.1 0.3 -0.4
 0.2 0.3 -0.4
 0.3 0.3 -0.4
 0.4 0.3 -0.4
 0.5 0.3 -0.4
 -0.5 0.4 -0.4
 -0.4 0.4 -0.4
 -0.3 0.4 -0.4
 -0.2 0.4 -0.4
 -0.1 0.4 -0.4
 0 0.4 -0.4
 0.1 0.4 -0.4
 0.2 0.4 -0.4
 0.3 0.4 -0.4
 0.4 0.4 -0.4
 0.5 0.4 -0.4
 -0.5 0.5 -0.4
 -0.4 0.5 -0.4
 -0.3 0.5 -0.4
 -0.2 0.5 -0.4
 -0.1 0.5 -0.4
 0 0.5 -0.4
 0.1 0.5 -0.4
 0.2 0.5 -0.4
 0.3 0.5 -0.4
 0.4 0.5 -0.4
 0.5 0.5 -0.4
 -0.5 -0.5 -0.3
 -0.4 -0.5 -0.3
 -0.3 -0.5 -0.3
 -0.2 -0.5 -0.3
 -0.1 -0.5 -0.3
 0 -0.5 -0.3
 0.1 -0.5 -0.3
 0.2 -0.5 -0.3
 0.3 -0.5 -0.3
 0.4 -0.5 -0.3
 0.5 -0.5 -0.3
 -0.5 -0.4 -0.3
 -0.4 -0.4 -0.3
 -0.3 -0.4 -0.3
 -0.2 -0.4 -0.3
 -0.1 -0.4 -0.3
 0 -0.4 -0.3
 0.1 -0.4 -0.3
 0.2 -0.4 -0.3
 0.3 -0.4 -0.3
 0.4 -0.4 -0.3
 0.5 -0.4 -0.3
 -0.5 -0.3 -0.3
 -0.4 -0.3 -0.3
 -0.3 -0.3 -0.3
 -0.2 -0.3 -0.3
 -0.1 -0.3 -0.3
 0 -0.3 -0.3
 0.1 -0.3 -0.3
 0.2 -0.3 -0.3
 0.3 -0.3 -0.3
 0.4 -0.3 -0.3
 0.5 -0.3 -0.3
 -0.5 -0.2 -0.3
 -0.4 -0.2 -0.3
 -0.3 -0.2 -0.3
 -0.2 -0.2 -0.3
 -0.1 -0.2 -0.3
 0 -0.2 -0.3
 0.1 -0.2 -0.3
 0.2 -0.2 -0.3
 0.3 -0.2 -0.3
 0.4 -0.2 -0.3
 0.5 -0.2 -0.3
 -0.5 -0.1 -0.3
 -0.4 -0.1 -0.3
 -0.3 -0.1 -0.3
 -0.2 -0.1 -0.3
 -0.1 -0.1 -0.3
 0 -0.1 -0.3
 0.1 -0.1 -0.3
 0.2 -0.1 -0.3
 0.3 -0.1 -0.3
 0.4 -0.1 -0.3
 0.5 -0.1 -0.3
 -0.5 0 -0.3
 -0.4 0 -0.3
 -0.3 0 -0.3
 -0.2 0 -0.3
 -0.1 0 -0.3
 0 0 -0.3
 0.1 0 -0.3
 0.2 0 -0.3
 0.3 0 -0.3
 0.4 0 -0.3
 0.5 0 -0.3
 -0.5 0.1 -0.3
 -0.4 0.1 -0.3
 -0.3 0.1 -0.3
 -0.2 0.1 -0.3
 -0.1 0.1 -0.3
 0 0.1 -0.3
 0.1 0.1 -0.3
 0.2 0.1 -0.3
 0.3 0.1 -0.3
 0.4 0.1 -0.3
 0.5 0.1 -0.3
 -0.5 0.2 -0.3
 -0.4 0.2 -0.3
 -0.3 0.2 -0.3
 -0.2 0.2 -0.3
 -0.1 0.2 -0.3
 0 0.2 -0.3
 0.1 0.2 -0.3
 0.2 0.2 -0.3
 0.3 0.2 -0.3
 0.4 0.2 -0.3
 0.5 0.2 -0.3
 -0.5 0.3 -0.3
 -0.4 0.3 -0.3
 -0.3 0.3 -0.3
 -0.2 0.3 -0.3
 -0.1 0.3 -0.3
 0 0.3 -0.3
 0.1 0.3 -0.3
 0.2 0.3 -0.3
 0.3 0.3 -0.3
 0.4 0.3 -0.3
 0.5 0.3 -0.3
 -0.5 0.4 -0.3
 -0.4 0.4 -0.3
 -0.3 0.4 -0.3
 -0.2 0.4 -0.3
 -0.1 0.4 -0.3
 0 0.4 -0.3
 0.1 0.4 -0.3
 0.2 0.4 -0.3
 0.3 0.4 -0.3
 0.4 0.4 -0.3
 0.5 0.4 -0.3
 -0.5 0.5 -0.3
 -0.4 0.5 -0.3
 -0.3 0.5 -0.3
 -0.2 0.5 -0.3
 -0.1 0.5 -0.3
 0 0.5 -0.3
 0.1 0.5 -0.3
 0.2 0.5 -0.3
 0.3 0.5 -0.3
 0.4 0.5 -0.3
 0.5 0.5 -0.3
 -0.5 -0.5 -0.2
 -0.4 -0.5 -0.2
 -0.3 -0.5 -0.2
 -0.2 -0.5 -0.2
 -0.1 -0.5 -0.2
 0 -0.5 -0.2
 0.1 -0.5 -0.2
 0.2 -0.5 -0.2
 0.3 -0.5 -0.2
 0.4 -0.5 -0.2
 0.5 -0.5 -0.2
 -0.5 -0.4 -0.2
 -0.4 -0.4 -0.2
 -0.3 -0.4 -0.2
 -0.2 -0.4 -0.2
 -0.1 -0.4 -0.2
 0 -0.4 -0.2
 0.1 -0.4 -0.2
 0.2 -0.4 -0.2
 0.3 -0.4 -0.2
 0.4 -0.4 -0.2
 0.5 -0.4 -0.2
 -0.5 -0.3 -0.2
 -0.4 -0.3 -0.2
 -0.3 -0.3 -0.2
 -0.2 -0.3 -0.2
 -0.1 -0.3 -0.2
 0 -0.3 -0.2
 0.1 -0.3 -0.2
 0.2 -0.3 -0.2
 0.3 -0.3 -0.2
 0.4 -0.3 -0.2
 0.5 -0.3 -0.2
 -0.5 -0.2 -0.2
 -0.4 -0.2 -0.2
 -0.3 -0.2 -0.2
 -0.2 -0.2 -0.2
 -0.1 -0.2 -0.2
 0 -0.2 -0.2
 0.1 -0.2 -0.2
 0.2 -0.2 -0.2
 0.3 -0.2 -0.2
 0.4 -0.2 -0.2
 0.5 -0.2 -0.2
 -0.5 -0.1 -0.2
 -0.4 -0.1 -0.2
 -0.3 -0.1 -0.2
 -0.2 -0.1 -0.2
 -0.1 -0.1 -0.2
 0 -0.1 -0.2
 0.1 -0.1 -0.2
 0.2 -0.1 -0.2
 0.3 -0.1 -0.2
 0.4 -0.1 -0.2
 0.5 -0.1 -0.2
 -0.5 0 -0.2
 -0.4 0 -0.2
 -0.3 0 -0.2
 -0.2 0 -0.2
 -0.1 0 -0.2
 0 0 -0.2
 0.1 0 -0.2
 0.2 0 -0.2
 0.3 0 -0.2
 0.4 0 -0.2
 0.5 0 -0.2
 -0.5 0.1 -0.2
 -0.4 0.1 -0.2
 -0.3 0.1 -0.2
 -0.2 0.1 -0.2
 -0.1 0.1 -0.2
 0 0.1 -0.2
 0.1 0.1 -0.2
 0.2 0.1 -0.2
 0.3 0.1 -0.2
 0.4 0.1 -0.2
 0.5 0.1 -0.2
 -0.5 0.2 -0.2
 -0.4 0.2 -0.2
 -0.3 0.2 -0.2
 -0.2 0.2 -0.2
 -0.1 0.2 -0.2
 0 0.2 -0.2
 0.1 0.2 -0.2
 0.2 0.2 -0.2
 0.3 0.2 -0.2
 0.4 0.2 -0.2
 0.5 0.2 -0.2
 -0.5 0.3 -0.2
 -0.4 0.3 -0.2
 -0.3 0.3 -0.2
 -0.2 0.3 -0.2
 -0.1 0.3 -0.2
 0 0.3 -0.2
 0.1 0.3 -0.2
 0.2 0.3 -0.2
 0.3 0.3 -0.2
 0.4 0.3 -0.2
 0.5 0.3 -0.2
 -0.5 0.4 -0.2
 -0.4 0.4 -0.2
 -0.3 0.4 -0.2
 -0.2 0.4 -0.2
 -0.1 0.4 -0.2
 0 0.4 -0.2
 0.1 0.4 -0.2
 0.2 0.4 -0.2
 0.3 0.4 -0.2
 0.4 0.4 -0.2
 0.5 0.4 -0.2
 -0.5 0.5 -0.2
 -0.4 0.5 -0.2
 -0.3 0.5 -0.2
 -0.2 0.5 -0.2
 -0.1 0.5 -0.2
 0 0.5 -0.2
 0.1 0.5 -0.2
 0.2 0.5 -0.2
 0.3 0.5 -0.2
 0.4 0.5 -0.2
 0.5 0.5 -0.2
 -0.5 -0.5 -0.1
 -0.4 -0.5 -0.1
 -0.3 -0.5 -0.1
 -0.2 -0.5 -0.1
 -0.1 -0.5 -0.1
 0 -0.5 -0.1
 0.1 -0.5 -0.1
 0.2 -0.5 -0.1
 0.3 -0.5 -0.1
 0.4 -0.5 -0.1
 0.5 -0.5 -0.1
 -0.5 -0.4 -0.1
 -0.4 -0.4 -0.1
 -0.3 -0.4 -0.1
 -0.2 -0.4 -0.1
 -0.1 -0.4 -0.1
 0 -0.4 -0.1
 0.1 -0.4 -0.1
 0.2 -0.4 -0.1
 0.3 -0.4 -0.1
 0.4 -0.4 -0.1
 0.5 -0.4 -0.1
 -0.5 -0.3 -0.1
 -0.4 -0.3 -0.1
 -0.3 -0.3 -0.1
 -0.2 -0.3 -0.1
 -0.1 -0.3 -0.1
 0 -0.3 -0.1
 0.1 -0.3 -0.1
 0.2 -0.3 -0.1
 0.3 -0.3 -0.1
 0.4 -0.3 -0.1
 0.5 -0.3 -0.1
 -0.5 -0.2 -0.1
 -0.4 -0.2 -0.1
 -0.3 -0.2 -0.1
 -0.2 -0.2 -0.1
 -0.1 -0.2 -0.1
 0 -0.2 -0.1
 0.1 -0.2 -0.1
 0.2 -0.2 -0.1
 0.3 -0.2 -0.1
 0.4 -0.2 -0.1
 0.5 -0.2 -0.1
 -0.5 -0.1 -0.1
 -0.4 -0.1 -0.1
 -0.3 -0.1 -0.1
 -0.2 -0.1 -0.1
 -0.1 -0.1 -0.1
 0 -0.1 -0.1
 0.1 -0.1 -0.1
 0.2 -0.1 -0.1
 0.3 -0.1 -0.1
 0.4 -0.1 -0.1
 0.5 -0.1 -0.1
 -0.5 0 -0.1
 -0.4 0 -0.1
 -0.3 0 -0.1
 -0.2 0 -0.1
 -0.1 0 -0.1
 0 0 -0.1
 0.1 0 -0.1
 0.2 0 -0.1
 0.3 0 -0.1
 0.4 0 -0.1
 0.5 0 -0.1
 -0.5 0.1 -0.1
 -0.4 0.1 -0.1
 -0.3 0.1 -0.1
 -0.2 0.1 -0.1
 -0.1 0.1 -0.1
 0 0.1 -0.1
 0.1 0.1 -0.1
 0.2 0.1 -0.1
 0.3 0.1 -0.1
 0.4 0.1 -0.1
 0.5 0.1 -0.1
 -0.5 0.2 -0.1
 -0.4 0.2 -0.1
 -0.3 0.2 -0.1
 -0.2 0.2 -0.1
 -0.1 0.2 -0.1
 0 0.2 -0.1
 0.1 0.2 -0.1
 0.2 0.2 -0.1
 0.3 0.2 -0.1
 0.4 0.2 -0.1
 0.5 0.2 -0.1
 -0.5 0.3 -0.1
 -0.4 0.3 -0.1
 -0.3 0.3 -0.1
 -0.2 0.3 -0.1
 -0.1 0.3 -0.1
 0 0.3 -0.1
 0.1 0.3 -0.1
 0.2 0.3 -0.1
 0.3 0.3 -0.1
 0.4 0.3 -0.1
 0.5 0.3 -0.1
 -0.5 0.4 -0.1
 -0.4 0.4 -0.1
 -0.3 0.4 -0.1
 -0.2 0.4 -0.1
 -0.1 0.4 -0.1
 0 0.4 -0.1
 0.1 0.4 -0.1
 0.2 0.4 -0.1
 0.3 0.4 -0.1
 0.4 0.4 -0.1
 0.5 0.4 -0.1
 -0.5 0.5 -0.1
 -0.4 0.5 -0.1
 -0.3 0.5 -0.1
 -0.2 0.5 -0.1
 -0.1 0.5 -0.1
 0 0.5 -0.1
 0.1 0.5 -0.1
 0.2 0.5 -0.1
 0.3 0.5 -0.1
 0.4 0.5 -0.1
 0.5 0.5 -0.1
 -0.5 -0.5 0
 -0.4 -0.5 0
 -0.3 -0.5 0
 -0.2 -0.5 0
 -0.1 -0.5 0
 0 -0.5 0
 0.1 -0.5 0
 0.2 -0.5 0
 0.3 -0.5 0
 0.4 -0.5 0
 0.5 -0.5 0
 -0.5 -0.4 0
 -0.4 -0.4 0
 -0.3 -0.4 0
 -0.2 -0.4 0
 -0.1 -0.4 0
 0 -0.4 0
 0.1 -0.4 0
 0.2 -0.4 0
 0.3 -0.4 0
 0.4 -0.4 0
 0.5 -0.4 0
 -0.5 -0.3 0
 -0.4 -0.3 0
 -0.3 -0.3 0
 -0.2 -0.3 0
 -0.1 -0.3 0
 0 -0.3 0
 0.1 -0.3 0
 0.2 -0.3 0
 0.3 -0.3 0
 0.4 -0.3 0
 0.5 -0.3 0
 -0.5 -0.2 0
 -0.4 -0.2 0
 -0.3 -0.2 0
 -0.2 -0.2 0
 -0.1 -0.2 0
 0 -0.2 0
 0.1 -0.2 0
 0.2 -0.2 0
 0.3 -0.2 0
 0.4 -0.2 0
 0.5 -0.2 0
 -0.5 -0.1 0
 -0.4 -0.1 0
 -0.3 -0.1 0
 -0.2 -0.1 0
 -0.1 -0.1 0
 0 -0.1 0
 0.1 -0.1 0
 0.2 -0.1 0
 0.3 -0.1 0
 0.4 -0.1 0
 0.5 -0.1 0
 -0.5 0 0
 -0.4 0 0
 -0.3 0 0
 -0.2 0 0
 -0.1 0 0
 0 0 0
 0.1 0 0
 0.2 0 0
 0.3 0 0
 0.4 0 0
 0.5 0 0
 -0.5 0.1 0
 -0.4 0.1 0
 -0.3 0.1 0
 -0.2 0.1 0
 -0.1 0.1 0
 0 0.1 0
 0.1 0.1 0
 0.2 0.1 0
 0.3 0.1 0
 0.4 0.1 0
 0.5 0.1 0
 -0.5 0.2 0
 -0.4 0.2 0
 -0.3 0.2 0
 -0.2 0.2 0
 -0.1 0.2 0
 0 0.2 0
 0.1 0.2 0
 0.2 0.2 0
 0.3 0.2 0
 0.4 0.2 0
 0.5 0.2 0
 -0.5 0.3 0
 -0.4 0.3 0
[...]
CELL_DATA 1000
FIELD DOMAIN 2
VOL_DIV_q 1 1000 FLOAT 
 1.67271
 1.61911
 1.65419
 1.66139
 1.57835
 1.53634
 1.61296
 1.64406
 1.59622
 1.65518
 1.61437
 1.60767
 1.66601
 1.63071
 1.62552
 1.65946
 1.59336
 1.58801
 1.61259
 1.55646
 1.62808
 1.53774
 1.61039
 1.61155
 1.59131
 1.61912
 1.60853
 1.63772
 1.63765
 1.63518
 1.62235
 1.59002
 1.58328
 1.55608
 1.63821
 1.53674
 1.5759
 1.63147
 1.62038
 1.63639
 1.58968
 1.61882
 1.62815
 1.5922
 1.64205
 1.60716
 1.63294
 1.63197
 1.58722
 1.64931
 1.48401
 1.58707
 1.63475
 1.61426
 1.58714
 1.62027
 1.61629
 1.58543
 1.63523
 1.56737
 1.62584
 1.59718
 1.56736
 1.6377
 1.62024
 1.61402
 1.59762
 1.55424
 1.59676
 1.58925
 1.60066
 1.65946
 1.64969
 1.61529
 1.59529
 1.5978
 1.68558
 1.63838
 1.6371
 1.55846
 1.63063
 1.61091
 1.62228
 1.5579
 1.58589
 1.60682
 1.66361
 1.59309
 1.5903
 1.66878
 1.62163
 1.66378
 1.56945
 1.63174
 1.6179
 1.64734
 1.56055
 1.62558
 1.54862
 1.599
 1.41169
 1.42228
 1.39521
 1.40039
 1.37469
 1.46881
 1.36366
 1.37761
 1.39351
 1.37325
 1.40398
 1.43545
 1.37516
 1.36853
 1.36036
 1.37507
 1.39087
 1.38479
 1.42988
 1.40236
 1.41575
 1.39874
 1.44105
 1.4273
 1.36963
 1.41034
 1.43568
 1.40029
 1.38664
 1.41074
 1.35693
 1.3912
 1.43813
 1.41937
 1.41296
 1.40571
 1.41942
 1.37717
 1.45458
 1.38885
 1.34248
 1.44149
 1.38073
 1.37534
 1.39617
 1.40175
 1.38599
 1.4002
 1.42426
 1.37745
 1.40329
 1.36134
 1.39264
 1.36611
 1.39056
 1.41049
 1.44235
 1.38342
 1.42637
 1.38572
 1.40499
 1.36841
 1.44008
 1.42952
 1.38782
 1.40543
 1.39916
 1.3783
 1.38697
 1.38154
 1.40101
 1.4214
 1.45722
 1.39135
 1.38007
 1.37796
 1.39104
 1.40885
 1.39452
 1.37587
 1.44732
 1.42904
 1.34754
 1.42057
 1.43738
 1.35682
 1.41929
 1.4288
 1.44345
 1.41125
 1.40042
 1.38685
 1.34184
 1.37043
 1.42998
 1.3813
 1.45777
 1.38762
 1.43455
 1.4146
 1.25346
 1.27555
 1.31158
 1.2862
 1.26457
 1.29179
 1.26386
 1.28987
 1.27054
 1.32022
 1.28758
 1.30088
 1.277
 1.27316
 1.25638
 1.27481
 1.31584
 1.24599
 1.2895
 1.2523
 1.26419
 1.3059
 1.28491
 1.28196
 1.24948
 1.27021
 1.27143
 1.26596
 1.23596
 1.29991
 1.26418
 1.2468
 1.29325
 1.2887
 1.31434
 1.2482
 1.23019
 1.28817
 1.28358
 1.23499
 1.28322
 1.25617
 1.27114
 1.30557
 1.3
 1.30126
 1.2482
 1.30774
 1.26979
 1.26525
 1.24377
 1.273
 1.25451
 1.30061
 1.26034
 1.30832
 1.25863
 1.29287
 1.27448
 1.27974
 1.24039
 1.26237
 1.25414
 1.28873
 1.26883
 1.26778
 1.28667
 1.28986
 1.25173
 1.30714
 1.31738
 1.28453
 1.2905
 1.26676
 1.23963
 1.2677
 1.26165
 1.27116
 1.23424
 1.26839
 1.22698
 1.25936
 1.24929
 1.23436
 1.2649
 1.2988
 1.29294
 1.26535
 1.28345
 1.28643
 1.29213
 1.26164
 1.25883
 1.28768
 1.25504
 1.29407
 1.26518
 1.22554
 1.2801
 1.2625
 1.21278
 1.19787
 1.20842
 1.19
 1.20566
 1.21274
 1.19784
 1.21592
 1.22418
 1.22592
 1.14523
 1.171
 1.21739
 1.19315
 1.19275
 1.24941
 1.20687
 1.19309
 1.16728
 1.18004
 1.22723
 1.17312
 1.22137
 1.23192
 1.21793
 1.21534
 1.22227
 1.18786
 1.209
 1.22244
 1.22887
 1.19783
 1.21478
 1.18001
 1.21658
 1.23145
 1.2423
 1.17589
 1.19698
 1.22623
 1.23211
 1.23609
 1.21587
 1.19132
 1.17782
 1.24431
 1.21548
 1.19667
 1.2173
 1.20798
 1.23294
 1.21327
 1.17333
 1.24018
 1.23619
 1.19162
 1.17356
 1.22088
 1.22829
 1.19837
 1.21139
 1.21651
 1.2197
 1.17212
 1.19521
 1.2013
 1.19972
 1.19054
 1.2203
 1.20794
 1.15962
 1.20364
 1.19437
 1.21159
 1.17904
 1.20232
 1.21684
 1.23387
 1.17287
 1.2419
 1.20782
 1.21331
 1.20713
 1.1927
 1.21268
 1.23637
 1.18328
 1.21281
 1.19469
 1.21345
 1.23628
 1.23424
 1.21115
 1.19947
 1.19047
 1.23114
 1.17637
 1.20573
 1.17884
 1.19905
 1.17677
 1.18298
 1.14797
 1.17879
 1.15715
 1.19857
 1.19307
 1.18925
 1.19352
 1.16882
 1.14193
 1.18146
 1.20584
 1.1779
 1.18494
 1.20222
 1.20794
 1.21196
 1.18299
 1.16679
 1.18696
 1.19027
 1.17545
 1.2115
 1.16724
 1.16735
 1.17581
 1.1903
 1.19446
 1.1613
 1.15537
 1.15656
 1.19783
 1.16181
 1.15825
 1.15432
 1.16447
 1.17494
 1.18285
 1.1842
 1.16869
 1.16684
 1.17557
 1.17739
 1.17301
 1.19579
 1.21084
 1.17207
 1.17928
 1.14648
 1.18116
 1.18345
 1.19001
 1.16817
 1.15272
 1.17006
 1.15266
 1.19678
 1.14342
 1.18346
 1.18498
 1.18134
 1.17621
 1.14781
 1.16215
 1.15953
 1.14561
 1.19463
 1.17706
 1.17307
 1.14831
 1.18764
 1.195
 1.17683
 1.16174
 1.16668
 1.2006
 1.17601
 1.16626
 1.19155
 1.1868
 1.17583
 1.18984
 1.16355
 1.20312
 1.19853
 1.16394
 1.19643
 1.17418
 1.18439
 1.17316
 1.17353
 1.14796
 1.16569
 1.18246
 1.19532
 1.1711
 1.17415
 1.18143
 1.20328
 1.17383
 1.17503
 1.15482
 1.1785
 1.17739
 1.17228
 1.13799
 1.19204
 1.17318
 1.18514
 1.17881
 1.17834
 1.14749
 1.15006
 1.14725
 1.1822
 1.16107
 1.20156
 1.19177
 1.189
 1.16352
 1.12426
 1.19792
 1.18493
 1.18644
 1.1502
 1.15704
 1.20254
 1.17987
 1.16914
 1.17584
 1.19895
 1.16904
 1.13498
 1.16561
 1.16383
 1.15138
 1.17439
 1.14659
 1.17613
 1.15925
 1.19228
 1.18188
 1.1615
 1.1994
 1.14916
 1.21382
 1.17195
 1.17378
 1.1766
 1.20099
 1.16095
 1.20529
 1.17856
 1.1588
 1.1787
 1.19296
 1.1798
 1.16659
 1.16944
 1.15938
 1.20619
 1.18532
 1.15741
 1.17923
 1.18266
 1.18245
 1.20501
 1.16417
 1.14935
 1.16961
 1.17444
 1.18163
 1.17002
 1.1943
 1.15376
 1.1434
 1.18048
 1.1922
 1.20905
 1.18817
 1.16367
 1.16361
 1.13356
 1.1679
 1.17928
 1.19495
 1.17974
 1.18639
 1.17472
 1.19527
 1.18512
 1.15913
 1.21633
 1.13958
 1.17189
 1.15942
 1.17609
 1.19416
 1.1718
 1.21476
 1.20907
 1.21366
 1.22846
 1.26609
 1.20155
 1.2128
 1.16333
 1.19492
 1.23125
 1.27469
 1.17868
 1.19942
 1.20613
 1.1641
 1.20148
 1.19594
 1.19791
 1.23829
 1.20512
 1.18414
 1.21015
 1.22143
 1.19835
 1.17559
 1.22258
 1.18102
 1.25785
 1.16409
 1.2116
 1.18738
 1.17957
 1.21954
 1.20764
 1.20345
 1.19049
 1.22053
 1.21591
 1.19975
 1.2193
 1.19181
 1.17913
 1.21665
 1.23227
 1.23713
 1.23662
 1.22666
 1.20026
 1.19671
 1.2082
 1.17504
 1.18595
 1.1633
 1.21271
 1.22169
 1.17871
 1.22006
 1.20656
 1.21057
 1.21885
 1.20897
 1.22732
 1.2336
 1.1974
 1.20129
 1.19966
 1.20951
 1.22799
 1.20994
 1.20321
 1.19833
 1.21103
 1.23238
 1.21172
 1.20496
 1.22566
 1.23904
 1.22742
 1.23296
 1.18351
 1.22358
 1.17603
 1.22799
 1.24036
 1.23115
 1.21339
 1.20483
 1.21663
 1.23445
 1.18114
 1.2104
 1.22391
 1.22474
 1.19916
 1.18333
 1.20353
 1.22008
 1.20703
 1.2423
 1.23149
 1.25418
 1.30871
 1.30244
 1.23743
 1.29937
 1.29313
 1.25664
 1.29521
 1.27096
 1.2748
 1.2868
 1.29428
 1.28357
 1.25495
 1.28957
 1.27619
 1.26229
 1.26824
 1.265
 1.27058
 1.29682
 1.27621
 1.26323
 1.26056
 1.25117
 1.27465
 1.27876
 1.2805
 1.30325
 1.27722
 1.27458
 1.28953
 1.26482
 1.3064
 1.31627
 1.28495
 1.31674
 1.34164
 1.29371
 1.32925
 1.26287
 1.29637
 1.27364
 1.30572
 1.29046
 1.25743
 1.29206
 1.23129
 1.28816
 1.23807
 1.31387
 1.28433
 1.26986
 1.26272
 1.28296
 1.2387
 1.29547
 1.27445
 1.2845
 1.25938
 1.27426
 1.26636
 1.3201
 1.28571
 1.25247
 1.27268
 1.26124
 1.31173
 1.27612
 1.26105
 1.27557
 1.27871
 1.25882
 1.29527
 1.24938
 1.27544
 1.29509
 1.26685
 1.30025
 1.27955
 1.24349
 1.28877
 1.25952
 1.29141
 1.3278
 1.29677
 1.29919
 1.293
 1.25507
 1.29694
 1.24677
 1.28468
 1.29579
 1.28361
 1.28379
 1.26461
 1.20422
 1.28241
 1.2833
 1.28875
 1.39194
 1.38632
 1.42283
 1.41375
 1.37206
 1.40321
 1.41979
 1.42521
 1.40206
 1.36073
 1.40247
 1.40072
 1.39781
 1.38525
 1.42568
 1.40968
 1.41457
 1.42812
 1.36383
 1.35789
 1.39762
 1.38049
 1.43776
 1.38536
 1.3996
 1.3621
 1.37056
 1.45504
 1.42793
 1.44132
 1.44237
 1.43731
 1.36513
 1.45753
 1.3974
 1.3722
 1.36708
 1.40789
 1.40679
 1.364
 1.36547
 1.43661
 1.40332
 1.32668
 1.43042
 1.44395
 1.38739
 1.3963
 1.38453
 1.37296
 1.43998
 1.3933
 1.41804
 1.40202
 1.38089
 1.33623
 1.3881
 1.40134
 1.40498
 1.37205
 1.35948
 1.42746
 1.40789
 1.38522
 1.35976
 1.38253
 1.37663
 1.39771
 1.42701
 1.42307
 1.40102
 1.3417
 1.35508
 1.40536
 1.43861
 1.37535
 1.36527
 1.47584
 1.40665
 1.41861
 1.3991
 1.39756
 1.4115
 1.39358
 1.35662
 1.40646
 1.35854
 1.35468
 1.40509
 1.4042
 1.39206
 1.39566
 1.39855
 1.3904
 1.36975
 1.37656
 1.43163
 1.41041
 1.36589
 1.39793
 1.59078
 1.65699
 1.59931
 1.59819
 1.66699
 1.58439
 1.64545
 1.60405
 1.62052
 1.54191
 1.62433
 1.60959
 1.61737
 1.62986
 1.61151
 1.64634
 1.60442
 1.60666
 1.55242
 1.54507
 1.60994
 1.6072
 1.60572
 1.57446
 1.62843
 1.55847
 1.62609
 1.60283
 1.62396
 1.61707
 1.6039
 1.57046
 1.61623
 1.57099
 1.61388
 1.54038
 1.5798
 1.63065
 1.59204
 1.59172
 1.63378
 1.62861
 1.63468
 1.57856
 1.57765
 1.61253
 1.56691
 1.56512
 1.64756
 1.62106
 1.61987
 1.62689
 1.55772
 1.58678
 1.60155
 1.57115
 1.60415
 1.611
 1.63422
 1.55718
 1.66516
 1.63077
 1.65489
 1.61187
 1.60044
 1.64212
 1.61602
 1.62934
 1.58656
 1.64236
 1.61788
 1.55809
 1.57155
 1.63959
 1.64992
 1.55662
 1.59556
 1.61003
 1.54334
 1.61209
 1.58095
 1.65171
 1.59279
 1.66137
 1.56278
 1.66266
 1.61282
 1.60355
 1.58329
 1.63659
 1.61256
 1.56081
 1.57906
 1.61199
 1.58906
 1.64866
 1.64232
 1.60014
 1.64226
 1.64476

Vol_HEAT_Q 1 1000 FLOAT 
 0.00167271
 0.00161911
 0.00165419
 0.00166139
 0.00157835
 0.00153634
 0.00161296
 0.00164406
 0.00159622
 0.00165518
 0.00161437
 0.00160767
 0.00166601
 0.00163071
 0.00162552
 0.00165946
 0.00159336
 0.00158801
 0.00161259
 0.00155646
 0.00162808
 0.00153774
 0.00161039
 0.00161155
 0.00159131
 0.00161912
 0.00160853
 0.00163772
 0.00163765
 0.00163518
 0.00162235
 0.00159002
 0.00158328
 0.00155608
 0.00163821
 0.00153674
 0.0015759
 0.00163147
 0.00162038
 0.00163639
 0.00158968
 0.00161882
 0.00162815
 0.0015922
 0.00164205
 0.00160716
 0.00163294
 0.00163197
 0.00158722
 0.00164931
 0.00148401
 0.00158707
 0.00163475
 0.00161426
 0.00158714
 0.00162027
 0.00161629
 0.00158543
 0.00163523
 0.00156737
 0.00162584
 0.00159718
 0.00156736
 0.0016377
 0.00162024
 0.00161402
 0.00159762
 0.00155424
 0.00159676
 0.00158925
 0.00160066
 0.00165946
 0.00164969
 0.00161529
 0.00159529
 0.0015978
 0.00168558
 0.00163838
 0.0016371
 0.00155846
 0.00163063
 0.00161091
 0.00162228
 0.0015579
 0.00158589
 0.00160682
 0.00166361
 0.00159309
 0.0015903
 0.00166878
 0.00162163
 0.00166378
 0.00156945
 0.00163174
 0.0016179
 0.00164734
 0.00156055
 0.00162558
 0.00154862
 0.001599
 0.00141169
 0.00142228
 0.00139521
 0.00140039
 0.00137469
 0.00146881
 0.00136366
 0.00137761
 0.00139351
 0.00137325
 0.00140398
 0.00143545
 0.00137516
 0.00136853
 0.00136036
 0.00137507
 0.00139087
 0.00138479
 0.00142988
 0.00140236
 0.00141575
 0.00139874
 0.00144105
 0.0014273
 0.00136963
 0.00141034
 0.00143568
 0.00140029
 0.00138664
 0.00141074
 0.00135693
 0.0013912
 0.00143813
 0.00141937
 0.00141296
 0.00140571
 0.00141942
 0.00137717
 0.00145458
 0.00138885
 0.00134248
 0.00144149
 0.00138073
 0.00137534
 0.00139617
 0.00140175
 0.00138599
 0.0014002
 0.00142426
 0.00137745
 0.00140329
 0.00136134
 0.00139264
 0.00136611
 0.00139056
 0.00141049
 0.00144235
 0.00138342
 0.00142637
 0.00138572
 0.00140499
 0.00136841
 0.00144008
 0.00142952
 0.00138782
 0.00140543
 0.00139916
 0.0013783
 0.00138697
 0.00138154
 0.00140101
 0.0014214
 0.00145722
 0.00139135
 0.00138007
 0.00137796
 0.00139104
 0.00140885
 0.00139452
 0.00137587
 0.00144732
 0.00142904
 0.00134754
 0.00142057
 0.00143738
 0.00135682
 0.00141929
 0.0014288
 0.00144345
 0.00141125
 0.00140042
 0.00138685
 0.00134184
 0.00137043
 0.00142998
 0.0013813
 0.00145777
 0.00138762
 0.00143455
 0.0014146
 0.00125346
 0.00127555
 0.00131158
 0.0012862
 0.00126457
 0.00129179
 0.00126386
 0.00128987
 0.00127054
 0.00132022
 0.00128758
 0.00130088
 0.001277
 0.00127316
 0.00125638
 0.00127481
 0.00131584
 0.00124599
 0.0012895
 0.0012523
 0.00126419
 0.0013059
 0.00128491
 0.00128196
 0.00124948
 0.00127021
 0.00127143
 0.00126596
 0.00123596
 0.00129991
 0.00126418
 0.0012468
 0.00129325
 0.0012887
 0.00131434
 0.0012482
 0.00123019
 0.00128817
 0.00128358
 0.00123499
 0.00128322
 0.00125617
 0.00127114
 0.00130557
 0.0013
 0.00130126
 0.0012482
 0.00130774
 0.00126979
 0.00126525
 0.00124377
 0.001273
 0.00125451
 0.00130061
 0.00126034
 0.00130832
 0.00125863
 0.00129287
 0.00127448
 0.00127974
 0.00124039
 0.00126237
 0.00125414
 0.00128873
 0.00126883
 0.00126778
 0.00128667
 0.00128986
 0.00125173
 0.00130714
 0.00131738
 0.00128453
 0.0012905
 0.00126676
 0.00123963
 0.0012677
 0.00126165
 0.00127116
 0.00123424
 0.00126839
 0.00122698
 0.00125936
 0.00124929
 0.00123436
 0.0012649
 0.0012988
 0.00129294
 0.00126535
 0.00128345
 0.00128643
 0.00129213
 0.00126164
 0.00125883
 0.00128768
 0.00125504
 0.00129407
 0.00126518
 0.00122554
 0.0012801
 0.0012625
 0.00121278
 0.00119787
 0.00120842
 0.00119
 0.00120566
 0.00121274
 0.00119784
 0.00121592
 0.00122418
 0.00122592
 0.00114523
 0.001171
 0.00121739
 0.00119315
 0.00119275
 0.00124941
 0.00120687
 0.00119309
 0.00116728
 0.00118004
 0.00122723
 0.00117312
 0.00122137
 0.00123192
 0.00121793
 0.00121534
 0.00122227
 0.00118786
 0.001209
 0.00122244
 0.00122887
 0.00119783
 0.00121478
 0.00118001
 0.00121658
 0.00123145
 0.0012423
 0.00117589
 0.00119698
 0.00122623
 0.00123211
 0.00123609
 0.00121587
 0.00119132
 0.00117782
 0.00124431
 0.00121548
 0.00119667
 0.0012173
 0.00120798
 0.00123294
 0.00121327
 0.00117333
 0.00124018
 0.00123619
 0.00119162
 0.00117356
 0.00122088
 0.00122829
 0.00119837
 0.00121139
 0.00121651
 0.0012197
 0.00117212
 0.00119521
 0.0012013
 0.00119972
 0.00119054
 0.0012203
 0.00120794
 0.00115962
 0.00120364
 0.00119437
 0.00121159
 0.00117904
 0.00120232
 0.00121684
 0.00123387
 0.00117287
 0.0012419
 0.00120782
 0.00121331
 0.00120713
 0.0011927
 0.00121268
 0.00123637
 0.00118328
 0.00121281
 0.00119469
 0.00121345
 0.00123628
 0.00123424
 0.00121115
 0.00119947
 0.00119047
 0.00123114
 0.00117637
 0.00120573
 0.00117884
 0.00119905
 0.00117677
 0.00118298
 0.00114797
 0.00117879
 0.00115715
 0.00119857
 0.00119307
 0.00118925
 0.00119352
 0.00116882
 0.00114193
 0.00118146
 0.00120584
 0.0011779
 0.00118494
 0.00120222
 0.00120794
 0.00121196
 0.00118299
 0.00116679
 0.00118696
 0.00119027
 0.00117545
 0.0012115
 0.00116724
 0.00116735
 0.00117581
 0.0011903
 0.00119446
 0.0011613
 0.00115537
 0.00115656
 0.00119783
 0.00116181
 0.00115825
 0.00115432
 0.00116447
 0.00117494
 0.00118285
 0.0011842
 0.00116869
 0.00116684
 0.00117557
 0.00117739
 0.00117301
 0.00119579
 0.00121084
 0.00117207
 0.00117928
 0.00114648
 0.00118116
 0.00118345
 0.00119001
 0.00116817
 0.00115272
 0.00117006
 0.00115266
 0.00119678
 0.00114342
 0.00118346
 0.00118498
 0.00118134
 0.00117621
 0.00114781
 0.00116215
 0.00115953
 0.00114561
 0.00119463
 0.00117706
 0.00117307
 0.00114831
 0.00118764
 0.001195
 0.00117683
 0.00116174
 0.00116668
 0.0012006
 0.00117601
 0.00116626
 0.00119155
 0.0011868
 0.00117583
 0.00118984
 0.00116355
 0.00120312
 0.00119853
 0.00116394
 0.00119643
 0.00117418
 0.00118439
 0.00117316
 0.00117353
 0.00114796
 0.00116569
 0.00118246
 0.00119532
 0.0011711
 0.00117415
 0.00118143
 0.00120328
 0.00117383
 0.00117503
 0.00115482
 0.0011785
 0.00117739
 0.00117228
 0.00113799
 0.00119204
 0.00117318
 0.00118514
 0.00117881
 0.00117834
 0.00114749
 0.00115006
 0.00114725
 0.0011822
 0.00116107
 0.00120156
 0.00119177
 0.001189
 0.00116352
 0.00112426
 0.00119792
 0.00118493
 0.00118644
 0.0011502
 0.00115704
 0.00120254
 0.00117987
 0.00116914
 0.00117584
 0.00119895
 0.00116904
 0.00113498
 0.00116561
 0.00116383
 0.00115138
 0.00117439
 0.00114659
 0.00117613
 0.00115925
 0.00119228
 0.00118188
 0.0011615
 0.0011994
 0.00114916
 0.00121382
 0.00117195
 0.00117378
 0.0011766
 0.00120099
 0.00116095
 0.00120529
 0.00117856
 0.0011588
 0.0011787
 0.00119296
 0.0011798
 0.00116659
 0.00116944
 0.00115938
 0.00120619
 0.00118532
 0.00115741
 0.00117923
 0.00118266
 0.00118245
 0.00120501
 0.00116417
 0.00114935
 0.00116961
 0.00117444
 0.00118163
 0.00117002
 0.0011943
 0.00115376
 0.0011434
 0.00118048
 0.0011922
 0.00120905
 0.00118817
 0.00116367
 0.00116361
 0.00113356
 0.0011679
 0.00117928
 0.00119495
 0.00117974
 0.00118639
 0.00117472
 0.00119527
 0.00118512
 0.00115913
 0.00121633
 0.00113958
 0.00117189
 0.00115942
 0.00117609
 0.00119416
 0.0011718
 0.00121476
 0.00120907
 0.00121366
 0.00122846
 0.00126609
 0.00120155
 0.0012128
 0.00116333
 0.00119492
 0.00123125
 0.00127469
 0.00117868
 0.00119942
 0.00120613
 0.0011641
 0.00120148
 0.00119594
 0.00119791
 0.00123829
 0.00120512
 0.00118414
 0.00121015
 0.00122143
 0.00119835
 0.00117559
 0.00122258
 0.00118102
 0.00125785
 0.00116409
 0.0012116
 0.00118738
 0.00117957
 0.00121954
 0.00120764
 0.00120345
 0.00119049
 0.00122053
 0.00121591
 0.00119975
 0.0012193
 0.00119181
 0.00117913
 0.00121665
 0.00123227
 0.00123713
 0.00123662
 0.00122666
 0.00120026
 0.00119671
 0.0012082
 0.00117504
 0.00118595
 0.0011633
 0.00121271
 0.00122169
 0.00117871
 0.00122006
 0.00120656
 0.00121057
 0.00121885
 0.00120897
 0.00122732
 0.0012336
 0.0011974
 0.00120129
 0.00119966
 0.00120951
 0.00122799
 0.00120994
 0.00120321
 0.00119833
 0.00121103
 0.00123238
 0.00121172
 0.00120496
 0.00122566
 0.00123904
 0.00122742
 0.00123296
 0.00118351
 0.00122358
 0.00117603
 0.00122799
 0.00124036
 0.00123115
 0.00121339
 0.00120483
 0.00121663
 0.00123445
 0.00118114
 0.0012104
 0.00122391
 0.00122474
 0.00119916
 0.00118333
 0.00120353
 0.00122008
 0.00120703
 0.0012423
 0.00123149
 0.00125418
 0.00130871
 0.00130244
 0.00123743
 0.00129937
 0.00129313
 0.00125664
 0.00129521
 0.00127096
 0.0012748
 0.0012868
 0.00129428
 0.00128357
 0.00125495
 0.00128957
 0.00127619
 0.00126229
 0.00126824
 0.001265
 0.00127058
 0.00129682
 0.00127621
 0.00126323
 0.00126056
 0.00125117
 0.00127465
 0.00127876
 0.0012805
 0.00130325
 0.00127722
 0.00127458
 0.00128953
 0.00126482
 0.0013064
 0.00131627
 0.00128495
 0.00131674
 0.00134164
 0.00129371
 0.00132925
 0.00126287
 0.00129637
 0.00127364
 0.00130572
 0.00129046
 0.00125743
 0.00129206
 0.00123129
 0.00128816
 0.00123807
 0.00131387
 0.00128433
 0.00126986
 0.00126272
 0.00128296
 0.0012387
 0.00129547
 0.00127445
 0.0012845
 0.00125938
 0.00127426
 0.00126636
 0.0013201
 0.00128571
 0.00125247
 0.00127268
 0.00126124
 0.00131173
 0.00127612
 0.00126105
 0.00127557
 0.00127871
 0.00125882
 0.00129527
 0.00124938
 0.00127544
 0.00129509
 0.00126685
 0.00130025
 0.00127955
 0.00124349
 0.00128877
 0.00125952
 0.00129141
 0.0013278
 0.00129677
 0.00129919
 0.001293
 0.00125507
 0.00129694
 0.00124677
 0.00128468
 0.00129579
 0.00128361
 0.00128379
 0.00126461
 0.00120422
 0.00128241
 0.0012833
 0.00128875
 0.00139194
 0.00138632
 0.00142283
 0.00141375
 0.00137206
 0.00140321
 0.00141979
 0.00142521
 0.00140206
 0.00136073
 0.00140247
 0.00140072
 0.00139781
 0.00138525
 0.00142568
 0.00140968
 0.00141457
 0.00142812
 0.00136383
 0.00135789
 0.00139762
 0.00138049
 0.00143776
 0.00138536
 0.0013996
 0.0013621
 0.00137056
 0.00145504
 0.00142793
 0.00144132
 0.00144237
 0.00143731
 0.00136513
 0.00145753
 0.0013974
 0.0013722
 0.00136708
 0.00140789
 0.00140679
 0.001364
 0.00136547
 0.00143661
 0.00140332
 0.00132668
 0.00143042
 0.00144395
 0.00138739
 0.0013963
 0.00138453
 0.00137296
 0.00143998
 0.0013933
 0.00141804
 0.00140202
 0.00138089
 0.00133623
 0.0013881
 0.00140134
 0.00140498
 0.00137205
 0.00135948
 0.00142746
 0.00140789
 0.00138522
 0.00135976
 0.00138253
 0.00137663
 0.00139771
 0.00142701
 0.00142307
 0.00140102
 0.0013417
 0.00135508
 0.00140536
 0.00143861
 0.00137535
 0.00136527
 0.00147584
 0.00140665
 0.00141861
 0.0013991
 0.00139756
 0.0014115
 0.00139358
 0.00135662
 0.00140646
 0.00135854
 0.00135468
 0.00140509
 0.0014042
 0.00139206
 0.00139566
 0.00139855
 0.0013904
 0.00136975
 0.00137656
 0.00143163
 0.00141041
 0.00136589
 0.00139793
 0.00159078
 0.00165699
 0.00159931
 0.00159819
 0.00166699
 0.00158439
 0.00164545
 0.00160405
 0.00162052
 0.00154191
 0.00162433
 0.00160959
 0.00161737
 0.00162986
 0.00161151
 0.00164634
 0.00160442
 0.00160666
 0.00155242
 0.00154507
 0.00160994
 0.0016072
 0.00160572
 0.00157446
 0.00162843
 0.00155847
 0.00162609
 0.00160283
 0.00162396
 0.00161707