# vtk DataFile Version 2.0
Three-D cube divergence of heat flux and Q in volume elements
ASCII
DATASET UNSTRUCTURED_GRID

POINTS  1331  FLOAT
 -0.5 -0.5 -0.5
 -0.4 -0.5 -0.5
 -0.3 -0.5 -0.5
 -0.2 -0.5 -0.5
 -0.1 -0.5 -0.5
 0 -0.5 -0.5
 0.1 -0.5 -0.5
 0.2 -0.5 -0.5
 0.3 -0.5 -0.5
 0.4 -0.5 -0.5
 0.5 -0.5 -0.5
 -0.5 -0.4 -0.5
 -0.4 -0.4 -0.5
 -0.3 -0.4 -0.5
 -0.2 -0.4 -0.5
 -0.1 -0.4 -0.5
 0 -0.4 -0.5
 0.1 -0.4 -0.5
 0.2 -0.4 -0.5
 0.3 -0.4 -0.5
 0.4 -0.4 -0.5
 0.5 -0.4 -0.5
 -0.5 -0.3 -0.5
 -0.4 -0.3 -0.5
 -0.3 -0.3 -0.5
 -0.2 -0.3 -0.5
 -0.1 -0.3 -0.5
 0 -0.3 -0.5
 0.1 -0.3 -0.5
 0.2 -0.3 -0.5
 0.3 -0.3 -0.5
 0.4 -0.3 -0.5
 0.5 -0.3 -0.5
 -0.5 -0.2 -0.5
 -0.4 -0.2 -0.5
 -0.3 -0.2 -0.5
 -0.2 -0.2 -0.5
 -0.1 -0.2 -0.5
 0 -0.2 -0.5
 0.1 -0.2 -0.5
 0.2 -0.2 -0.5
 0.3 -0.2 -0.5
 0.4 -0.2 -0.5
 0.5 -0.2 -0.5
 -0.5 -0.1 -0.5
 -0.4 -0.1 -0.5
 -0.3 -0.1 -0.5
 -0.2 -0.1 -0.5
 -0.1 -0.1 -0.5
 0 -0.1 -0.5
 0.1 -0.1 -0.5
 0.2 -0.1 -0.5
 0.3 -0.1 -0.5
 0.4 -0.1 -0.5
 0.5 -0.1 -0.5
 -0.5 0 -0.5
 -0.4 0 -0.5
 -0.3 0 -0.5
 -0.2 0 -0.5
 -0.1 0 -0.5
 0 0 -0.5
 0.1 0 -0.5
 0.2 0 -0.5
 0.3 0 -0.5
 0.4 0 -0.5
 0.5 0 -0.5
 -0.5 0.1 -0.5
 -0.4 0.1 -0.5
 -0.3 0.1 -0.5
 -0.2 0.1 -0.5
 -0.1 0.1 -0.5
 0 0.1 -0.5
 0.1 0.1 -0.5
 0.2 0.1 -0.5
 0.3 0.1 -0.5
 0.4 0.1 -0.5
 0.5 0.1 -0.5
 -0.5 0.2 -0.5
 -0.4 0.2 -0.5
 -0.3 0.2 -0.5
 -0.2 0.2 -0.5
 -0.1 0.2 -0.5
 0 0.2 -0.5
 0.1 0.2 -0.5
 0.2 0.2 -0.5
 0.3 0.2 -0.5
 0.4 0.2 -0.5
 0.5 0.2 -0.5
 -0.5 0.3 -0.5
 -0.4 0.3 -0.5
 -0.3 0.3 -0.5
 -0.2 0.3 -0.5
 -0.1 0.3 -0.5
 0 0.3 -0.5
 0.1 0.3 -0.5
 0.2 0.3 -0.5
 0.3 0.3 -0.5
 0.4 0.3 -0.5
 0.5 0.3 -0.5
 -0.5 0.4 -0.5
 -0.4 0.4 -0.5
 -0.3 0.4 -0.5
 -0.2 0.4 -0.5
 -0.1 0.4 -0.5
 0 0.4 -0.5
 0.1 0.4 -0.5
 0.2 0.4 -0.5
 0.3 0.4 -0.5
 0.4 0.4 -0.5
 0.5 0.4 -0.5
 -0.5 0.5 -0.5
 -0.4 0.5 -0.5
 -0.3 0.5 -0.5
 -0.2 0.5 -0.5
 -0.1 0.5 -0.5
 0 0.5 -0.5
 0.1 0.5 -0.5
 0.2 0.5 -0.5
 0.3 0.5 -0.5
 0.4 0.5 -0.5
 0.5 0.5 -0.5
 -0.5 -0.5 -0.4
 -0.4 -0.5 -0.4
 -0.3 -0.5 -0.4
 -0.2 -0.5 -0.4
 -0.1 -0.5 -0.4
 0 -0.5 -0.4
 0.1 -0.5 -0.4
 0.2 -0.5 -0.4
 0.3 -0.5 -0.4
 0.4 -0.5 -0.4
 0.5 -0.5 -0.4
 -0.5 -0.4 -0.4
 -0.4 -0.4 -0.4
 -0.3 -0.4 -0.4
 -0.2 -0.4 -0.4
 -0.1 -0.4 -0.4
 0 -0.4 -0.4
 0.1 -0.4 -0.4
 0.2 -0.4 -0.4
 0.3 -0.4 -0.4
 0.4 -0.4 -0.4
 0.5 -0.4 -0.4
 -0.5 -0.3 -0.4
 -0.4 -0.3 -0.4
 -0.3 -0.3 -0.4
 -0.2 -0.3 -0.4
 -0.1 -0.3 -0.4
 0 -0.3 -0.4
 0.1 -0.3 -0.4
 0.2 -0.3 -0.4
 0.3 -0.3 -0.4
 0.4 -0.3 -0.4
 0.5 -0.3 -0.4
 -0.5 -0.2 -0.4
 -0.4 -0.2 -0.4
 -0.3 -0.2 -0.4
 -0.2 -0.2 -0.4
 -0.1 -0.2 -0.4
 0 -0.2 -0.4
 0.1 -0.2 -0.4
 0.2 -0.2 -0.4
 0.3 -0.2 -0.4
 0.4 -0.2 -0.4
 0.5 -0.2 -0.4
 -0.5 -0.1 -0.4
 -0.4 -0.1 -0.4
 -0.3 -0.1 -0.4
 -0.2 -0.1 -0.4
 -0.1 -0.1 -0.4
 0 -0.1 -0.4
 0.1 -0.1 -0.4
 0.2 -0.1 -0.4
 0.3 -0.1 -0.4
 0.4 -0.1 -0.4
 0.5 -0.1 -0.4
 -0.5 0 -0.4
 -0.4 0 -0.4
 -0.3 0 -0.4
 -0.2 0 -0.4
 -0.1 0 -0.4
 0 0 -0.4
 0.1 0 -0.4
 0.2 0 -0.4
 0.3 0 -0.4
 0.4 0 -0.4
 0.5 0 -0.4
 -0.5 0.1 -0.4
 -0.4 0.1 -0.4
 -0.3 0.1 -0.4
 -0.2 0.1 -0.4
 -0.1 0.1 -0.4
 0 0.1 -0.4
 0.1 0.1 -0.4
 0.2 0.1 -0.4
 0.3 0.1 -0.4
 0.4 0.1 -0.4
 0.5 0.1 -0.4
 -0.5 0.2 -0.4
 -0.4 0.2 -0.4
 -0.3 0.2 -0.4
 -0.2 0.2 -0.4
 -0.1 0.2 -0.4
 0 0.2 -0.4
 0.1 0.2 -0.4
 0.2 0.2 -0.4
 0.3 0.2 -0.4
 0.4 0.2 -0.4
 0.5 0.2 -0.4
 -0.5 0.3 -0.4
 -0.4 0.3 -0.4
 -0.3 0.3 -0.4
 -0.2 0.3 -0.4
 -0.1 0.3 -0.4
 0 0.3 -0.4
 0.1 0.3 -0.4
 0.2 0.3 -0.4
 0.3 0.3 -0.4
 0.4 0.3 -0.4
 0.5 0.3 -0.4
 -0.5 0.4 -0.4
 -0.4 0.4 -0.4
 -0.3 0.4 -0.4
 -0.2 0.4 -0.4
 -0.1 0.4 -0.4
 0 0.4 -0.4
 0.1 0.4 -0.4
 0.2 0.4 -0.4
 0.3 0.4 -0.4
 0.4 0.4 -0.4
 0.5 0.4 -0.4
 -0.5 0.5 -0.4
 -0.4 0.5 -0.4
 -0.3 0.5 -0.4
 -0.2 0.5 -0.4
 -0.1 0.5 -0.4
 0 0.5 -0.4
 0.1 0.5 -0.4
 0.2 0.5 -0.4
 0.3 0.5 -0.4
 0.4 0.5 -0.4
 0.5 0.5 -0.4
 -0.5 -0.5 -0.3
 -0.4 -0.5 -0.3
 -0.3 -0.5 -0.3
 -0.2 -0.5 -0.3
 -0.1 -0.5 -0.3
 0 -0.5 -0.3
 0.1 -0.5 -0.3
 0.2 -0.5 -0.3
 0.3 -0.5 -0.3
 0.4 -0.5 -0.3
 0.5 -0.5 -0.3
 -0.5 -0.4 -0.3
 -0.4 -0.4 -0.3
 -0.3 -0.4 -0.3
 -0.2 -0.4 -0.3
 -0.1 -0.4 -0.3
 0 -0.4 -0.3
 0.1 -0.4 -0.3
 0.2 -0.4 -0.3
 0.3 -0.4 -0.3
 0.4 -0.4 -0.3
 0.5 -0.4 -0.3
 -0.5 -0.3 -0.3
 -0.4 -0.3 -0.3
 -0.3 -0.3 -0.3
 -0.2 -0.3 -0.3
 -0.1 -0.3 -0.3
 0 -0.3 -0.3
 0.1 -0.3 -0.3
 0.2 -0.3 -0.3
 0.3 -0.3 -0.3
 0.4 -0.3 -0.3
 0.5 -0.3 -0.3
 -0.5 -0.2 -0.3
 -0.4 -0.2 -0.3
 -0.3 -0.2 -0.3
 -0.2 -0.2 -0.3
 -0.1 -0.2 -0.3
 0 -0.2 -0.3
 0.1 -0.2 -0.3
 0.2 -0.2 -0.3
 0.3 -0.2 -0.3
 0.4 -0.2 -0.3
 0.5 -0.2 -0.3
 -0.5 -0.1 -0.3
 -0.4 -0.1 -0.3
 -0.3 -0.1 -0.3
 -0.2 -0.1 -0.3
 -0.1 -0.1 -0.3
 0 -0.1 -0.3
 0.1 -0.1 -0.3
 0.2 -0.1 -0.3
 0.3 -0.1 -0.3
 0.4 -0.1 -0.3
 0.5 -0.1 -0.3
 -0.5 0 -0.3
 -0.4 0 -0.3
 -0.3 0 -0.3
 -0.2 0 -0.3
 -0.1 0 -0.3
 0 0 -0.3
 0.1 0 -0.3
 0.2 0 -0.3
 0.3 0 -0.3
 0.4 0 -0.3
 0.5 0 -0.3
 -0.5 0.1 -0.3
 -0.4 0.1 -0.3
 -0.3 0.1 -0.3
 -0.2 0.1 -0.3
 -0.1 0.1 -0.3
 0 0.1 -0.3
 0.1 0.1 -0.3
 0.2 0.1 -0.3
 0.3 0.1 -0.3
 0.4 0.1 -0.3
 0.5 0.1 -0.3
 -0.5 0.2 -0.3
 -0.4 0.2 -0.3
 -0.3 0.2 -0.3
 -0.2 0.2 -0.3
 -0.1 0.2 -0.3
 0 0.2 -0.3
 0.1 0.2 -0.3
 0.2 0.2 -0.3
 0.3 0.2 -0.3
 0.4 0.2 -0.3
 0.5 0.2 -0.3
 -0.5 0.3 -0.3
 -0.4 0.3 -0.3
 -0.3 0.3 -0.3
 -0.2 0.3 -0.3
 -0.1 0.3 -0.3
 0 0.3 -0.3
 0.1 0.3 -0.3
 0.2 0.3 -0.3
 0.3 0.3 -0.3
 0.4 0.3 -0.3
 0.5 0.3 -0.3
 -0.5 0.4 -0.3
 -0.4 0.4 -0.3
 -0.3 0.4 -0.3
 -0.2 0.4 -0.3
 -0.1 0.4 -0.3
 0 0.4 -0.3
 0.1 0.4 -0.3
 0.2 0.4 -0.3
 0.3 0.4 -0.3
 0.4 0.4 -0.3
 0.5 0.4 -0.3
 -0.5 0.5 -0.3
 -0.4 0.5 -0.3
 -0.3 0.5 -0.3
 -0.2 0.5 -0.3
 -0.1 0.5 -0.3
 0 0.5 -0.3
 0.1 0.5 -0.3
 0.2 0.5 -0.3
 0.3 0.5 -0.3
 0.4 0.5 -0.3
 0.5 0.5 -0.3
 -0.5 -0.5 -0.2
 -0.4 -0.5 -0.2
 -0.3 -0.5 -0.2
 -0.2 -0.5 -0.2
 -0.1 -0.5 -0.2
 0 -0.5 -0.2
 0.1 -0.5 -0.2
 0.2 -0.5 -0.2
 0.3 -0.5 -0.2
 0.4 -0.5 -0.2
 0.5 -0.5 -0.2
 -0.5 -0.4 -0.2
 -0.4 -0.4 -0.2
 -0.3 -0.4 -0.2
 -0.2 -0.4 -0.2
 -0.1 -0.4 -0.2
 0 -0.4 -0.2
 0.1 -0.4 -0.2
 0.2 -0.4 -0.2
 0.3 -0.4 -0.2
 0.4 -0.4 -0.2
 0.5 -0.4 -0.2
 -0.5 -0.3 -0.2
 -0.4 -0.3 -0.2
 -0.3 -0.3 -0.2
 -0.2 -0.3 -0.2
 -0.1 -0.3 -0.2
 0 -0.3 -0.2
 0.1 -0.3 -0.2
 0.2 -0.3 -0.2
 0.3 -0.3 -0.2
 0.4 -0.3 -0.2
 0.5 -0.3 -0.2
 -0.5 -0.2 -0.2
 -0.4 -0.2 -0.2
 -0.3 -0.2 -0.2
 -0.2 -0.2 -0.2
 -0.1 -0.2 -0.2
 0 -0.2 -0.2
 0.1 -0.2 -0.2
 0.2 -0.2 -0.2
 0.3 -0.2 -0.2
 0.4 -0.2 -0.2
 0.5 -0.2 -0.2
 -0.5 -0.1 -0.2
 -0.4 -0.1 -0.2
 -0.3 -0.1 -0.2
 -0.2 -0.1 -0.2
 -0.1 -0.1 -0.2
 0 -0.1 -0.2
 0.1 -0.1 -0.2
 0.2 -0.1 -0.2
 0.3 -0.1 -0.2
 0.4 -0.1 -0.2
 0.5 -0.1 -0.2
 -0.5 0 -0.2
 -0.4 0 -0.2
 -0.3 0 -0.2
 -0.2 0 -0.2
 -0.1 0 -0.2
 0 0 -0.2
 0.1 0 -0.2
 0.2 0 -0.2
 0.3 0 -0.2
 0.4 0 -0.2
 0.5 0 -0.2
 -0.5 0.1 -0.2
 -0.4 0.1 -0.2
 -0.3 0.1 -0.2
 -0.2 0.1 -0.2
 -0.1 0.1 -0.2
 0 0.1 -0.2
 0.1 0.1 -0.2
 0.2 0.1 -0.2
 0.3 0.1 -0.2
 0.4 0.1 -0.2
 0.5 0.1 -0.2
 -0.5 0.2 -0.2
 -0.4 0.2 -0.2
 -0.3 0.2 -0.2
 -0.2 0.2 -0.2
 -0.1 0.2 -0.2
 0 0.2 -0.2
 0.1 0.2 -0.2
 0.2 0.2 -0.2
 0.3 0.2 -0.2
 0.4 0.2 -0.2
 0.5 0.2 -0.2
 -0.5 0.3 -0.2
 -0.4 0.3 -0.2
 -0.3 0.3 -0.2
 -0.2 0.3 -0.2
 -0.1 0.3 -0.2
 0 0.3 -0.2
 0.1 0.3 -0.2
 0.2 0.3 -0.2
 0.3 0.3 -0.2
 0.4 0.3 -0.2
 0.5 0.3 -0.2
 -0.5 0.4 -0.2
 -0.4 0.4 -0.2
 -0.3 0.4 -0.2
 -0.2 0.4 -0.2
 -0.1 0.4 -0.2
 0 0.4 -0.2
 0.1 0.4 -0.2
 0.2 0.4 -0.2
 0.3 0.4 -0.2
 0.4 0.4 -0.2
 0.5 0.4 -0.2
 -0.5 0.5 -0.2
 -0.4 0.5 -0.2
 -0.3 0.5 -0.2
 -0.2 0.5 -0.2
 -0.1 0.5 -0.2
 0 0.5 -0.2
 0.1 0.5 -0.2
 0.2 0.5 -0.2
 0.3 0.5 -0.2
 0.4 0.5 -0.2
 0.5 0.5 -0.2
 -0.5 -0.5 -0.1
 -0.4 -0.5 -0.1
 -0.3 -0.5 -0.1
 -0.2 -0.5 -0.1
 -0.1 -0.5 -0.1
 0 -0.5 -0.1
 0.1 -0.5 -0.1
 0.2 -0.5 -0.1
 0.3 -0.5 -0.1
 0.4 -0.5 -0.1
 0.5 -0.5 -0.1
 -0.5 -0.4 -0.1
 -0.4 -0.4 -0.1
 -0.3 -0.4 -0.1
 -0.2 -0.4 -0.1
 -0.1 -0.4 -0.1
 0 -0.4 -0.1
 0.1 -0.4 -0.1
 0.2 -0.4 -0.1
 0.3 -0.4 -0.1
 0.4 -0.4 -0.1
 0.5 -0.4 -0.1
 -0.5 -0.3 -0.1
 -0.4 -0.3 -0.1
 -0.3 -0.3 -0.1
 -0.2 -0.3 -0.1
 -0.1 -0.3 -0.1
 0 -0.3 -0.1
 0.1 -0.3 -0.1
 0.2 -0.3 -0.1
 0.3 -0.3 -0.1
 0.4 -0.3 -0.1
 0.5 -0.3 -0.1
 -0.5 -0.2 -0.1
 -0.4 -0.2 -0.1
 -0.3 -0.2 -0.1
 -0.2 -0.2 -0.1
 -0.1 -0.2 -0.1
 0 -0.2 -0.1
 0.1 -0.2 -0.1
 0.2 -0.2 -0.1
 0.3 -0.2 -0.1
 0.4 -0.2 -0.1
 0.5 -0.2 -0.1
 -0.5 -0.1 -0.1
 -0.4 -0.1 -0.1
 -0.3 -0.1 -0.1
 -0.2 -0.1 -0.1
 -0.1 -0.1 -0.1
 0 -0.1 -0.1
 0.1 -0.1 -0.1
 0.2 -0.1 -0.1
 0.3 -0.1 -0.1
 0.4 -0.1 -0.1
 0.5 -0.1 -0.1
 -0.5 0 -0.1
 -0.4 0 -0.1
 -0.3 0 -0.1
 -0.2 0 -0.1
 -0.1 0 -0.1
 0 0 -0.1
 0.1 0 -0.1
 0.2 0 -0.1
 0.3 0 -0.1
 0.4 0 -0.1
 0.5 0 -0.1
 -0.5 0.1 -0.1
 -0.4 0.1 -0.1
 -0.3 0.1 -0.1
 -0.2 0.1 -0.1
 -0.1 0.1 -0.1
 0 0.1 -0.1
 0.1 0.1 -0.1
 0.2 0.1 -0.1
 0.3 0.1 -0.1
 0.4 0.1 -0.1
 0.5 0.1 -0.1
 -0.5 0.2 -0.1
 -0.4 0.2 -0.1
 -0.3 0.2 -0.1
 -0.2 0.2 -0.1
 -0.1 0.2 -0.1
 0 0.2 -0.1
 0.1 0.2 -0.1
 0.2 0.2 -0.1
 0.3 0.2 -0.1
 0.4 0.2 -0.1
 0.5 0.2 -0.1
 -0.5 0.3 -0.1
 -0.4 0.3 -0.1
 -0.3 0.3 -0.1
 -0.2 0.3 -0.1
 -0.1 0.3 -0.1
 0 0.3 -0.1
 0.1 0.3 -0.1
 0.2 0.3 -0.1
 0.3 0.3 -0.1
 0.4 0.3 -0.1
 0.5 0.3 -0.1
 -0.5 0.4 -0.1
 -0.4 0.4 -0.1
 -0.3 0.4 -0.1
 -0.2 0.4 -0.1
 -0.1 0.4 -0.1
 0 0.4 -0.1
 0.1 0.4 -0.1
 0.2 0.4 -0.1
 0.3 0.4 -0.1
 0.4 0.4 -0.1
 0.5 0.4 -0.1
 -0.5 0.5 -0.1
 -0.4 0.5 -0.1
 -0.3 0.5 -0.1
 -0.2 0.5 -0.1
 -0.1 0.5 -0.1
 0 0.5 -0.1
 0.1 0.5 -0.1
 0.2 0.5 -0.1
 0.3 0.5 -0.1
 0.4 0.5 -0.1
 0.5 0.5 -0.1
 -0.5 -0.5 0
 -0.4 -0.5 0
 -0.3 -0.5 0
 -0.2 -0.5 0
 -0.1 -0.5 0
 0 -0.5 0
 0.1 -0.5 0
 0.2 -0.5 0
 0.3 -0.5 0
 0.4 -0.5 0
 0.5 -0.5 0
 -0.5 -0.4 0
 -0.4 -0.4 0
 -0.3 -0.4 0
 -0.2 -0.4 0
 -0.1 -0.4 0
 0 -0.4 0
 0.1 -0.4 0
 0.2 -0.4 0
 0.3 -0.4 0
 0.4 -0.4 0
 0.5 -0.4 0
 -0.5 -0.3 0
 -0.4 -0.3 0
 -0.3 -0.3 0
 -0.2 -0.3 0
 -0.1 -0.3 0
 0 -0.3 0
 0.1 -0.3 0
 0.2 -0.3 0
 0.3 -0.3 0
 0.4 -0.3 0
 0.5 -0.3 0
 -0.5 -0.2 0
 -0.4 -0.2 0
 -0.3 -0.2 0
 -0.2 -0.2 0
 -0.1 -0.2 0
 0 -0.2 0
 0.1 -0.2 0
 0.2 -0.2 0
 0.3 -0.2 0
 0.4 -0.2 0
 0.5 -0.2 0
 -0.5 -0.1 0
 -0.4 -0.1 0
 -0.3 -0.1 0
 -0.2 -0.1 0
 -0.1 -0.1 0
 0 -0.1 0
 0.1 -0.1 0
 0.2 -0.1 0
 0.3 -0.1 0
 0.4 -0.1 0
 0.5 -0.1 0
 -0.5 0 0
 -0.4 0 0
 -0.3 0 0
 -0.2 0 0
 -0.1 0 0
 0 0 0
 0.1 0 0
 0.2 0 0
 0.3 0 0
 0.4 0 0
 0.5 0 0
 -0.5 0.1 0
 -0.4 0.1 0
 -0.3 0.1 0
 -0.2 0.1 0
 -0.1 0.1 0
 0 0.1 0
 0.1 0.1 0
 0.2 0.1 0
 0.3 0.1 0
 0.4 0.1 0
 0.5 0.1 0
 -0.5 0.2 0
 -0.4 0.2 0
 -0.3 0.2 0
 -0.2 0.2 0
 -0.1 0.2 0
 0 0.2 0
 0.1 0.2 0
 0.2 0.2 0
 0.3 0.2 0
 0.4 0.2 0
 0.5 0.2 0
 -0.5 0.3 0
 -0.4 0.3 0
[...]
CELL_DATA 1000
FIELD DOMAIN 2
VOL_DIV_q 1 1000 FLOAT 
 1.61324
 1.59534
 1.59754
 1.63948
 1.5919
 1.57342
 1.65055
 1.56057
 1.63586
 1.67151
 1.65487
 1.63028
 1.62202
 1.62957
 1.68471
 1.60215
 1.58565
 1.61721
 1.59557
 1.61679
 1.5349
 1.66127
 1.58623
 1.62124
 1.59814
 1.60186
 1.61857
 1.61408
 1.59971
 1.63456
 1.61576
 1.62524
 1.62649
 1.58736
 1.56285
 1.58802
 1.59249
 1.59947
 1.66994
 1.51874
 1.60438
 1.56683
 1.63823
 1.58059
 1.66168
 1.65423
 1.52167
 1.58942
 1.55685
 1.60617
 1.62986
 1.5615
 1.5628
 1.55262
 1.61288
 1.60218
 1.56897
 1.5878
 1.61465
 1.58228
 1.58671
 1.55405
 1.6146
 1.68881
 1.62695
 1.63226
 1.5959
 1.62659
 1.61431
 1.6448
 1.56964
 1.60044
 1.61433
 1.67985
 1.62174
 1.65051
 1.58982
 1.61219
 1.54839
 1.62637
 1.57147
 1.59375
 1.63389
 1.55348
 1.60108
 1.64086
 1.60103
 1.60752
 1.56099
 1.57183
 1.56844
 1.55042
 1.54477
 1.57341
 1.58546
 1.60565
 1.63194
 1.5698
 1.63177
 1.5655
 1.41479
 1.38002
 1.40057
 1.36807
 1.38312
 1.39817
 1.36103
 1.39602
 1.3753
 1.36624
 1.41255
 1.42381
 1.42643
 1.36601
 1.39118
 1.39942
 1.44332
 1.39563
 1.3757
 1.41046
 1.42005
 1.40161
 1.41073
 1.44873
 1.40796
 1.39884
 1.38919
 1.37452
 1.42115
 1.38025
 1.40358
 1.35299
 1.40041
 1.38711
 1.35432
 1.42009
 1.40506
 1.40247
 1.37908
 1.41415
 1.42913
 1.3775
 1.39738
 1.39357
 1.3731
 1.37151
 1.41671
 1.39863
 1.43365
 1.36223
 1.38158
 1.33828
 1.33802
 1.36966
 1.33919
 1.39144
 1.4331
 1.43186
 1.40162
 1.3418
 1.38769
 1.396
 1.39976
 1.43169
 1.3914
 1.37259
 1.42028
 1.36367
 1.40979
 1.4187
 1.41759
 1.4304
 1.40383
 1.36326
 1.38773
 1.37774
 1.3994
 1.38059
 1.44306
 1.44093
 1.38734
 1.35378
 1.40619
 1.41157
 1.40017
 1.41876
 1.38555
 1.43374
 1.43792
 1.38376
 1.42443
 1.41671
 1.41039
 1.40589
 1.39086
 1.3911
 1.37515
 1.40343
 1.39565
 1.37625
 1.28419
 1.28325
 1.25012
 1.3206
 1.26774
 1.28401
 1.27267
 1.26821
 1.29926
 1.24561
 1.31922
 1.27737
 1.26519
 1.28986
 1.28646
 1.28478
 1.31081
 1.26819
 1.26292
 1.31394
 1.24124
 1.28869
 1.32949
 1.25068
 1.29972
 1.27242
 1.28507
 1.25853
 1.30929
 1.27131
 1.31042
 1.29742
 1.30609
 1.29416
 1.3011
 1.23174
 1.26687
 1.24298
 1.29324
 1.29612
 1.29643
 1.24563
 1.31418
 1.28917
 1.27589
 1.23535
 1.28047
 1.31075
 1.25299
 1.32498
 1.26678
 1.31133
 1.30386
 1.27582
 1.29498
 1.27698
 1.30964
 1.31614
 1.28812
 1.28836
 1.33128
 1.26298
 1.29658
 1.26024
 1.26706
 1.24345
 1.23457
 1.27124
 1.24829
 1.30351
 1.29573
 1.27176
 1.24926
 1.28116
 1.23061
 1.25191
 1.29141
 1.29924
 1.27273
 1.27617
 1.27392
 1.2981
 1.2587
 1.28088
 1.29975
 1.29662
 1.34261
 1.25706
 1.29978
 1.2889
 1.32853
 1.29183
 1.30247
 1.30365
 1.30527
 1.31787
 1.24356
 1.30592
 1.31452
 1.241
 1.21092
 1.17302
 1.20247
 1.21763
 1.21643
 1.2307
 1.17642
 1.19543
 1.16815
 1.2308
 1.17051
 1.24396
 1.20922
 1.18445
 1.21431
 1.21605
 1.20008
 1.19826
 1.22149
 1.20507
 1.16793
 1.18909
 1.20213
 1.22837
 1.22749
 1.19182
 1.22256
 1.21916
 1.21107
 1.2173
 1.23284
 1.17607
 1.17665
 1.2199
 1.19163
 1.21722
 1.21312
 1.17823
 1.23778
 1.23266
 1.24548
 1.19605
 1.23227
 1.20894
 1.18915
 1.19835
 1.17332
 1.23757
 1.23897
 1.22275
 1.2448
 1.16174
 1.22556
 1.2113
 1.20517
 1.18034
 1.20464
 1.23598
 1.19883
 1.19917
 1.2029
 1.18144
 1.2148
 1.19144
 1.18608
 1.2337
 1.20931
 1.23228
 1.24382
 1.20954
 1.19868
 1.24335
 1.2479
 1.20754
 1.2073
 1.22951
 1.23979
 1.22993
 1.2293
 1.1936
 1.18835
 1.22525
 1.18435
 1.19017
 1.214
 1.23508
 1.22637
 1.19746
 1.20304
 1.21483
 1.22054
 1.21255
 1.21921
 1.20624
 1.2324
 1.19642
 1.22997
 1.18838
 1.24789
 1.17775
 1.15682
 1.18433
 1.20164
 1.17871
 1.18457
 1.17363
 1.16728
 1.17452
 1.17753
 1.16641
 1.1758
 1.16875
 1.20729
 1.20539
 1.1601
 1.1894
 1.19899
 1.20248
 1.16877
 1.15221
 1.18174
 1.18906
 1.19761
 1.13998
 1.21229
 1.19327
 1.16807
 1.18362
 1.1627
 1.20025
 1.17995
 1.19632
 1.17553
 1.17347
 1.20966
 1.20689
 1.18039
 1.1537
 1.17295
 1.19738
 1.16085
 1.13545
 1.17959
 1.16653
 1.18282
 1.17059
 1.1717
 1.17199
 1.20549
 1.17993
 1.1543
 1.21503
 1.1758
 1.13769
 1.1828
 1.17853
 1.18459
 1.21826
 1.1681
 1.18756
 1.15626
 1.20528
 1.17757
 1.20593
 1.16297
 1.16344
 1.23054
 1.19019
 1.2166
 1.17653
 1.16236
 1.1645
 1.17063
 1.17482
 1.18353
 1.16103
 1.17996
 1.18871
 1.21723
 1.19415
 1.16949
 1.18881
 1.16438
 1.18151
 1.20122
 1.1423
 1.21732
 1.16895
 1.1737
 1.20564
 1.16982
 1.15078
 1.15644
 1.20826
 1.17424
 1.15219
 1.17888
 1.17882
 1.17867
 1.17702
 1.18948
 1.18388
 1.18215
 1.1707
 1.18187
 1.15277
 1.18379
 1.18629
 1.15577
 1.20485
 1.15693
 1.1679
 1.16997
 1.14122
 1.16476
 1.20842
 1.16135
 1.14361
 1.14812
 1.19049
 1.15868
 1.17694
 1.17199
 1.18215
 1.14828
 1.17938
 1.17412
 1.16385
 1.18892
 1.16066
 1.1924
 1.16465
 1.15842
 1.14951
 1.16472
 1.20137
 1.2043
 1.15899
 1.136
 1.15023
 1.17815
 1.15425
 1.18419
 1.18994
 1.16719
 1.14183
 1.15866
 1.16038
 1.15439
 1.15174
 1.18025
 1.14616
 1.18435
 1.19265
 1.17345
 1.16178
 1.15126
 1.18612
 1.19708
 1.17499
 1.11567
 1.18838
 1.19383
 1.19114
 1.17449
 1.1713
 1.19115
 1.16009
 1.15735
 1.17472
 1.19931
 1.18235
 1.20112
 1.17043
 1.18714
 1.14958
 1.19602
 1.1854
 1.17796
 1.21162
 1.16565
 1.16599
 1.18292
 1.16917
 1.16308
 1.18826
 1.14701
 1.16199
 1.16301
 1.15912
 1.18866
 1.17757
 1.19278
 1.15585
 1.19853
 1.16969
 1.1833
 1.16391
 1.16794
 1.15281
 1.21052
 1.22214
 1.19759
 1.18994
 1.19776
 1.20465
 1.22313
 1.21808
 1.18034
 1.22169
 1.20653
 1.22915
 1.19403
 1.21888
 1.17486
 1.18929
 1.23625
 1.16763
 1.17761
 1.19136
 1.19984
 1.18408
 1.18718
 1.20229
 1.23092
 1.2236
 1.19642
 1.19125
 1.24058
 1.22928
 1.19026
 1.20539
 1.19414
 1.20343
 1.1943
 1.21089
 1.20018
 1.25262
 1.21829
 1.20534
 1.2264
 1.20245
 1.18228
 1.1947
 1.22101
 1.20935
 1.20211
 1.20375
 1.25185
 1.2355
 1.17389
 1.20737
 1.19405
 1.20783
 1.22025
 1.21362
 1.1555
 1.20553
 1.18422
 1.195
 1.20293
 1.22381
 1.17922
 1.18691
 1.17277
 1.2105
 1.22549
 1.21117
 1.21538
 1.19874
 1.18503
 1.19983
 1.1784
 1.23334
 1.18092
 1.17418
 1.22694
 1.21248
 1.2207
 1.20836
 1.19566
 1.18959
 1.24222
 1.19092
 1.19951
 1.20485
 1.19157
 1.21943
 1.2116
 1.19008
 1.17978
 1.2076
 1.22994
 1.24135
 1.21059
 1.20703
 1.20668
 1.20943
 1.20755
 1.212
 1.29765
 1.27532
 1.28136
 1.26586
 1.25959
 1.29284
 1.23921
 1.2587
 1.32408
 1.24382
 1.28361
 1.25388
 1.2944
 1.26499
 1.28604
 1.26111
 1.2545
 1.25211
 1.29207
 1.28127
 1.28534
 1.30331
 1.24665
 1.26937
 1.31532
 1.28247
 1.27933
 1.29835
 1.24961
 1.2764
 1.28967
 1.27142
 1.26013
 1.30444
 1.2831
 1.28729
 1.24368
 1.28485
 1.29854
 1.29734
 1.27219
 1.27222
 1.27174
 1.29737
 1.24765
 1.30409
 1.2862
 1.3029
 1.27498
 1.26813
 1.29274
 1.25876
 1.28393
 1.25542
 1.27826
 1.29188
 1.30842
 1.27863
 1.28361
 1.31802
 1.27853
 1.24405
 1.27342
 1.26925
 1.32069
 1.27619
 1.25886
 1.27097
 1.25323
 1.25508
 1.29725
 1.26422
 1.25065
 1.26523
 1.27293
 1.30019
 1.28317
 1.27229
 1.25627
 1.2827
 1.23868
 1.28008
 1.27465
 1.29663
 1.2787
 1.28053
 1.30034
 1.29569
 1.24211
 1.2908
 1.29825
 1.26168
 1.31927
 1.26308
 1.24515
 1.27034
 1.27241
 1.26517
 1.2904
 1.26435
 1.36549
 1.39969
 1.38595
 1.42432
 1.37939
 1.36494
 1.40608
 1.38948
 1.36249
 1.42783
 1.37923
 1.41191
 1.30726
 1.38815
 1.37869
 1.37756
 1.4126
 1.42525
 1.41812
 1.4205
 1.45369
 1.36965
 1.40137
 1.37471
 1.42491
 1.42726
 1.41261
 1.38741
 1.44079
 1.40465
 1.41556
 1.42724
 1.39652
 1.37794
 1.39547
 1.39428
 1.42735
 1.39017
 1.40556
 1.40817
 1.47683
 1.35755
 1.41602
 1.46551
 1.35837
 1.38496
 1.3293
 1.37556
 1.36824
 1.41432
 1.38926
 1.44117
 1.40621
 1.39218
 1.35317
 1.42562
 1.42322
 1.3838
 1.38778
 1.42366
 1.47348
 1.35701
 1.43069
 1.416
 1.38639
 1.39812
 1.33991
 1.40528
 1.42199
 1.42167
 1.33701
 1.40993
 1.38154
 1.36361
 1.37911
 1.38978
 1.38324
 1.36383
 1.41865
 1.4066
 1.41527
 1.36072
 1.40228
 1.36401
 1.37354
 1.3698
 1.38626
 1.41017
 1.35832
 1.37156
 1.45255
 1.3786
 1.36518
 1.39053
 1.42441
 1.45123
 1.34763
 1.45927
 1.35811
 1.35211
 1.60008
 1.60157
 1.63826
 1.62187
 1.58404
 1.64423
 1.60707
 1.62101
 1.57869
 1.60472
 1.6168
 1.65733
 1.58948
 1.54182
 1.58405
 1.61073
 1.57872
 1.61939
 1.59476
 1.60117
 1.59368
 1.67984
 1.67165
 1.591
 1.63333
 1.63181
 1.61559
 1.55874
 1.60485
 1.63259
 1.59384
 1.60709
 1.6312
 1.62405
 1.63316
 1.63893
 1.62753
 1.62614
 1.53797
 1.61349
 1.60214
 1.5849
 1.5729
 1.58176
 1.56973
 1.61369
 1.63166
 1.68451
 1.60413
 1.55797
 1.60111
 1.65086
 1.59543
 1.57758
 1.67153
 1.58518
 1.61449
 1.58027
 1.64645
 1.6866
 1.6006
 1.614
 1.61786
 1.63992
 1.59021
 1.63145
 1.61826
 1.59179
 1.60874
 1.62135
 1.58049
 1.70566
 1.63915
 1.62307
 1.62039
 1.65706
 1.57552
 1.63904
 1.64441
 1.58681
 1.62776
 1.55257
 1.5389
 1.59964
 1.63185
 1.65443
 1.59608
 1.6151
 1.59961
 1.5959
 1.59335
 1.63446
 1.5942
 1.62432
 1.61137
 1.61939
 1.58578
 1.5369
 1.64739
 1.6255

Vol_HEAT_Q 1 1000 FLOAT 
 0.00161324
 0.00159534
 0.00159754
 0.00163948
 0.0015919
 0.00157342
 0.00165055
 0.00156057
 0.00163586
 0.00167151
 0.00165487
 0.00163028
 0.00162202
 0.00162957
 0.00168471
 0.00160215
 0.00158565
 0.00161721
 0.00159557
 0.00161679
 0.0015349
 0.00166127
 0.00158623
 0.00162124
 0.00159814
 0.00160186
 0.00161857
 0.00161408
 0.00159971
 0.00163456
 0.00161576
 0.00162524
 0.00162649
 0.00158736
 0.00156285
 0.00158802
 0.00159249
 0.00159947
 0.00166994
 0.00151874
 0.00160438
 0.00156683
 0.00163823
 0.00158059
 0.00166168
 0.00165423
 0.00152167
 0.00158942
 0.00155685
 0.00160617
 0.00162986
 0.0015615
 0.0015628
 0.00155262
 0.00161288
 0.00160218
 0.00156897
 0.0015878
 0.00161465
 0.00158228
 0.00158671
 0.00155405
 0.0016146
 0.00168881
 0.00162695
 0.00163226
 0.0015959
 0.00162659
 0.00161431
 0.0016448
 0.00156964
 0.00160044
 0.00161433
 0.00167985
 0.00162174
 0.00165051
 0.00158982
 0.00161219
 0.00154839
 0.00162637
 0.00157147
 0.00159375
 0.00163389
 0.00155348
 0.00160108
 0.00164086
 0.00160103
 0.00160752
 0.00156099
 0.00157183
 0.00156844
 0.00155042
 0.00154477
 0.00157341
 0.00158546
 0.00160565
 0.00163194
 0.0015698
 0.00163177
 0.0015655
 0.00141479
 0.00138002
 0.00140057
 0.00136807
 0.00138312
 0.00139817
 0.00136103
 0.00139602
 0.0013753
 0.00136624
 0.00141255
 0.00142381
 0.00142643
 0.00136601
 0.00139118
 0.00139942
 0.00144332
 0.00139563
 0.0013757
 0.00141046
 0.00142005
 0.00140161
 0.00141073
 0.00144873
 0.00140796
 0.00139884
 0.00138919
 0.00137452
 0.00142115
 0.00138025
 0.00140358
 0.00135299
 0.00140041
 0.00138711
 0.00135432
 0.00142009
 0.00140506
 0.00140247
 0.00137908
 0.00141415
 0.00142913
 0.0013775
 0.00139738
 0.00139357
 0.0013731
 0.00137151
 0.00141671
 0.00139863
 0.00143365
 0.00136223
 0.00138158
 0.00133828
 0.00133802
 0.00136966
 0.00133919
 0.00139144
 0.0014331
 0.00143186
 0.00140162
 0.0013418
 0.00138769
 0.001396
 0.00139976
 0.00143169
 0.0013914
 0.00137259
 0.00142028
 0.00136367
 0.00140979
 0.0014187
 0.00141759
 0.0014304
 0.00140383
 0.00136326
 0.00138773
 0.00137774
 0.0013994
 0.00138059
 0.00144306
 0.00144093
 0.00138734
 0.00135378
 0.00140619
 0.00141157
 0.00140017
 0.00141876
 0.00138555
 0.00143374
 0.00143792
 0.00138376
 0.00142443
 0.00141671
 0.00141039
 0.00140589
 0.00139086
 0.0013911
 0.00137515
 0.00140343
 0.00139565
 0.00137625
 0.00128419
 0.00128325
 0.00125012
 0.0013206
 0.00126774
 0.00128401
 0.00127267
 0.00126821
 0.00129926
 0.00124561
 0.00131922
 0.00127737
 0.00126519
 0.00128986
 0.00128646
 0.00128478
 0.00131081
 0.00126819
 0.00126292
 0.00131394
 0.00124124
 0.00128869
 0.00132949
 0.00125068
 0.00129972
 0.00127242
 0.00128507
 0.00125853
 0.00130929
 0.00127131
 0.00131042
 0.00129742
 0.00130609
 0.00129416
 0.0013011
 0.00123174
 0.00126687
 0.00124298
 0.00129324
 0.00129612
 0.00129643
 0.00124563
 0.00131418
 0.00128917
 0.00127589
 0.00123535
 0.00128047
 0.00131075
 0.00125299
 0.00132498
 0.00126678
 0.00131133
 0.00130386
 0.00127582
 0.00129498
 0.00127698
 0.00130964
 0.00131614
 0.00128812
 0.00128836
 0.00133128
 0.00126298
 0.00129658
 0.00126024
 0.00126706
 0.00124345
 0.00123457
 0.00127124
 0.00124829
 0.00130351
 0.00129573
 0.00127176
 0.00124926
 0.00128116
 0.00123061
 0.00125191
 0.00129141
 0.00129924
 0.00127273
 0.00127617
 0.00127392
 0.0012981
 0.0012587
 0.00128088
 0.00129975
 0.00129662
 0.00134261
 0.00125706
 0.00129978
 0.0012889
 0.00132853
 0.00129183
 0.00130247
 0.00130365
 0.00130527
 0.00131787
 0.00124356
 0.00130592
 0.00131452
 0.001241
 0.00121092
 0.00117302
 0.00120247
 0.00121763
 0.00121643
 0.0012307
 0.00117642
 0.00119543
 0.00116815
 0.0012308
 0.00117051
 0.00124396
 0.00120922
 0.00118445
 0.00121431
 0.00121605
 0.00120008
 0.00119826
 0.00122149
 0.00120507
 0.00116793
 0.00118909
 0.00120213
 0.00122837
 0.00122749
 0.00119182
 0.00122256
 0.00121916
 0.00121107
 0.0012173
 0.00123284
 0.00117607
 0.00117665
 0.0012199
 0.00119163
 0.00121722
 0.00121312
 0.00117823
 0.00123778
 0.00123266
 0.00124548
 0.00119605
 0.00123227
 0.00120894
 0.00118915
 0.00119835
 0.00117332
 0.00123757
 0.00123897
 0.00122275
 0.0012448
 0.00116174
 0.00122556
 0.0012113
 0.00120517
 0.00118034
 0.00120464
 0.00123598
 0.00119883
 0.00119917
 0.0012029
 0.00118144
 0.0012148
 0.00119144
 0.00118608
 0.0012337
 0.00120931
 0.00123228
 0.00124382
 0.00120954
 0.00119868
 0.00124335
 0.0012479
 0.00120754
 0.0012073
 0.00122951
 0.00123979
 0.00122993
 0.0012293
 0.0011936
 0.00118835
 0.00122525
 0.00118435
 0.00119017
 0.001214
 0.00123508
 0.00122637
 0.00119746
 0.00120304
 0.00121483
 0.00122054
 0.00121255
 0.00121921
 0.00120624
 0.0012324
 0.00119642
 0.00122997
 0.00118838
 0.00124789
 0.00117775
 0.00115682
 0.00118433
 0.00120164
 0.00117871
 0.00118457
 0.00117363
 0.00116728
 0.00117452
 0.00117753
 0.00116641
 0.0011758
 0.00116875
 0.00120729
 0.00120539
 0.0011601
 0.0011894
 0.00119899
 0.00120248
 0.00116877
 0.00115221
 0.00118174
 0.00118906
 0.00119761
 0.00113998
 0.00121229
 0.00119327
 0.00116807
 0.00118362
 0.0011627
 0.00120025
 0.00117995
 0.00119632
 0.00117553
 0.00117347
 0.00120966
 0.00120689
 0.00118039
 0.0011537
 0.00117295
 0.00119738
 0.00116085
 0.00113545
 0.00117959
 0.00116653
 0.00118282
 0.00117059
 0.0011717
 0.00117199
 0.00120549
 0.00117993
 0.0011543
 0.00121503
 0.0011758
 0.00113769
 0.0011828
 0.00117853
 0.00118459
 0.00121826
 0.0011681
 0.00118756
 0.00115626
 0.00120528
 0.00117757
 0.00120593
 0.00116297
 0.00116344
 0.00123054
 0.00119019
 0.0012166
 0.00117653
 0.00116236
 0.0011645
 0.00117063
 0.00117482
 0.00118353
 0.00116103
 0.00117996
 0.00118871
 0.00121723
 0.00119415
 0.00116949
 0.00118881
 0.00116438
 0.00118151
 0.00120122
 0.0011423
 0.00121732
 0.00116895
 0.0011737
 0.00120564
 0.00116982
 0.00115078
 0.00115644
 0.00120826
 0.00117424
 0.00115219
 0.00117888
 0.00117882
 0.00117867
 0.00117702
 0.00118948
 0.00118388
 0.00118215
 0.0011707
 0.00118187
 0.00115277
 0.00118379
 0.00118629
 0.00115577
 0.00120485
 0.00115693
 0.0011679
 0.00116997
 0.00114122
 0.00116476
 0.00120842
 0.00116135
 0.00114361
 0.00114812
 0.00119049
 0.00115868
 0.00117694
 0.00117199
 0.00118215
 0.00114828
 0.00117938
 0.00117412
 0.00116385
 0.00118892
 0.00116066
 0.0011924
 0.00116465
 0.00115842
 0.00114951
 0.00116472
 0.00120137
 0.0012043
 0.00115899
 0.001136
 0.00115023
 0.00117815
 0.00115425
 0.00118419
 0.00118994
 0.00116719
 0.00114183
 0.00115866
 0.00116038
 0.00115439
 0.00115174
 0.00118025
 0.00114616
 0.00118435
 0.00119265
 0.00117345
 0.00116178
 0.00115126
 0.00118612
 0.00119708
 0.00117499
 0.00111567
 0.00118838
 0.00119383
 0.00119114
 0.00117449
 0.0011713
 0.00119115
 0.00116009
 0.00115735
 0.00117472
 0.00119931
 0.00118235
 0.00120112
 0.00117043
 0.00118714
 0.00114958
 0.00119602
 0.0011854
 0.00117796
 0.00121162
 0.00116565
 0.00116599
 0.00118292
 0.00116917
 0.00116308
 0.00118826
 0.00114701
 0.00116199
 0.00116301
 0.00115912
 0.00118866
 0.00117757
 0.00119278
 0.00115585
 0.00119853
 0.00116969
 0.0011833
 0.00116391
 0.00116794
 0.00115281
 0.00121052
 0.00122214
 0.00119759
 0.00118994
 0.00119776
 0.00120465
 0.00122313
 0.00121808
 0.00118034
 0.00122169
 0.00120653
 0.00122915
 0.00119403
 0.00121888
 0.00117486
 0.00118929
 0.00123625
 0.00116763
 0.00117761
 0.00119136
 0.00119984
 0.00118408
 0.00118718
 0.00120229
 0.00123092
 0.0012236
 0.00119642
 0.00119125
 0.00124058
 0.00122928
 0.00119026
 0.00120539
 0.00119414
 0.00120343
 0.0011943
 0.00121089
 0.00120018
 0.00125262
 0.00121829
 0.00120534
 0.0012264
 0.00120245
 0.00118228
 0.0011947
 0.00122101
 0.00120935
 0.00120211
 0.00120375
 0.00125185
 0.0012355
 0.00117389
 0.00120737
 0.00119405
 0.00120783
 0.00122025
 0.00121362
 0.0011555
 0.00120553
 0.00118422
 0.001195
 0.00120293
 0.00122381
 0.00117922
 0.00118691
 0.00117277
 0.0012105
 0.00122549
 0.00121117
 0.00121538
 0.00119874
 0.00118503
 0.00119983
 0.0011784
 0.00123334
 0.00118092
 0.00117418
 0.00122694
 0.00121248
 0.0012207
 0.00120836
 0.00119566
 0.00118959
 0.00124222
 0.00119092
 0.00119951
 0.00120485
 0.00119157
 0.00121943
 0.0012116
 0.00119008
 0.00117978
 0.0012076
 0.00122994
 0.00124135
 0.00121059
 0.00120703
 0.00120668
 0.00120943
 0.00120755
 0.001212
 0.00129765
 0.00127532
 0.00128136
 0.00126586
 0.00125959
 0.00129284
 0.00123921
 0.0012587
 0.00132408
 0.00124382
 0.00128361
 0.00125388
 0.0012944
 0.00126499
 0.00128604
 0.00126111
 0.0012545
 0.00125211
 0.00129207
 0.00128127
 0.00128534
 0.00130331
 0.00124665
 0.00126937
 0.00131532
 0.00128247
 0.00127933
 0.00129835
 0.00124961
 0.0012764
 0.00128967
 0.00127142
 0.00126013
 0.00130444
 0.0012831
 0.00128729
 0.00124368
 0.00128485
 0.00129854
 0.00129734
 0.00127219
 0.00127222
 0.00127174
 0.00129737
 0.00124765
 0.00130409
 0.0012862
 0.0013029
 0.00127498
 0.00126813
 0.00129274
 0.00125876
 0.00128393
 0.00125542
 0.00127826
 0.00129188
 0.00130842
 0.00127863
 0.00128361
 0.00131802
 0.00127853
 0.00124405
 0.00127342
 0.00126925
 0.00132069
 0.00127619
 0.00125886
 0.00127097
 0.00125323
 0.00125508
 0.00129725
 0.00126422
 0.00125065
 0.00126523
 0.00127293
 0.00130019
 0.00128317
 0.00127229
 0.00125627
 0.0012827
 0.00123868
 0.00128008
 0.00127465
 0.00129663
 0.0012787
 0.00128053
 0.00130034
 0.00129569
 0.00124211
 0.0012908
 0.00129825
 0.00126168
 0.00131927
 0.00126308
 0.00124515
 0.00127034
 0.00127241
 0.00126517
 0.0012904
 0.00126435
 0.00136549
 0.00139969
 0.00138595
 0.00142432
 0.00137939
 0.00136494
 0.00140608
 0.00138948
 0.00136249
 0.00142783
 0.00137923
 0.00141191
 0.00130726
 0.00138815
 0.00137869
 0.00137756
 0.0014126
 0.00142525
 0.00141812
 0.0014205
 0.00145369
 0.00136965
 0.00140137
 0.00137471
 0.00142491
 0.00142726
 0.00141261
 0.00138741
 0.00144079
 0.00140465
 0.00141556
 0.00142724
 0.00139652
 0.00137794
 0.00139547
 0.00139428
 0.00142735
 0.00139017
 0.00140556
 0.00140817
 0.00147683
 0.00135755
 0.00141602
 0.00146551
 0.00135837
 0.00138496
 0.0013293
 0.00137556
 0.00136824
 0.00141432
 0.00138926
 0.00144117
 0.00140621
 0.00139218
 0.00135317
 0.00142562
 0.00142322
 0.0013838
 0.00138778
 0.00142366
 0.00147348
 0.00135701
 0.00143069
 0.001416
 0.00138639
 0.00139812
 0.00133991
 0.00140528
 0.00142199
 0.00142167
 0.00133701
 0.00140993
 0.00138154
 0.00136361
 0.00137911
 0.00138978
 0.00138324
 0.00136383
 0.00141865
 0.0014066
 0.00141527
 0.00136072
 0.00140228
 0.00136401
 0.00137354
 0.0013698
 0.00138626
 0.00141017
 0.00135832
 0.00137156
 0.00145255
 0.0013786
 0.00136518
 0.00139053
 0.00142441
 0.00145123
 0.00134763
 0.00145927
 0.00135811
 0.00135211
 0.00160008
 0.00160157
 0.00163826
 0.00162187
 0.00158404
 0.00164423
 0.00160707
 0.00162101
 0.00157869
 0.00160472
 0.0016168
 0.00165733
 0.00158948
 0.00154182
 0.00158405
 0.00161073
 0.00157872
 0.00161939
 0.00159476
 0.00160117
 0.00159368
 0.00167984
 0.00167165
 0.001591
 0.00163333
 0.00163181
 0.00161559
 0.00155874