# vtk DataFile Version 2.0
Three-D cube divergence of heat flux and Q in volume elements
ASCII
DATASET UNSTRUCTURED_GRID

POINTS  1331  FLOAT
 -0.5 -0.5 -0.5
 -0.4 -0.5 -0.5
 -0.3 -0.5 -0.5
 -0.2 -0.5 -0.5
 -0.1 -0.5 -0.5
 0 -0.5 -0.5
 0.1 -0.5 -0.5
 0.2 -0.5 -0.5
 0.3 -0.5 -0.5
 0.4 -0.5 -0.5
 0.5 -0.5 -0.5
 -0.5 -0.4 -0.5
 -0.4 -0.4 -0.5
 -0.3 -0.4 -0.5
 -0.2 -0.4 -0.5
 -0.1 -0.4 -0.5
 0 -0.4 -0.5
 0.1 -0.4 -0.5
 0.2 -0.4 -0.5
 0.3 -0.4 -0.5
 0.4 -0.4 -0.5
 0.5 -0.4 -0.5
 -0.5 -0.3 -0.5
 -0.4 -0.3 -0.5
 -0.3 -0.3 -0.5
 -0.2 -0.3 -0.5
 -0.1 -0.3 -0.5
 0 -0.3 -0.5
 0.1 -0.3 -0.5
 0.2 -0.3 -0.5
 0.3 -0.3 -0.5
 0.4 -0.3 -0.5
 0.5 -0.3 -0.5
 -0.5 -0.2 -0.5
 -0.4 -0.2 -0.5
 -0.3 -0.2 -0.5
 -0.2 -0.2 -0.5
 -0.1 -0.2 -0.5
 0 -0.2 -0.5
 0.1 -0.2 -0.5
 0.2 -0.2 -0.5
 0.3 -0.2 -0.5
 0.4 -0.2 -0.5
 0.5 -0.2 -0.5
 -0.5 -0.1 -0.5
 -0.4 -0.1 -0.5
 -0.3 -0.1 -0.5
 -0.2 -0.1 -0.5
 -0.1 -0.1 -0.5
 0 -0.1 -0.5
 0.1 -0.1 -0.5
 0.2 -0.1 -0.5
 0.3 -0.1 -0.5
 0.4 -0.1 -0.5
 0.5 -0.1 -0.5
 -0.5 0 -0.5
 -0.4 0 -0.5
 -0.3 0 -0.5
 -0.2 0 -0.5
 -0.1 0 -0.5
 0 0 -0.5
 0.1 0 -0.5
 0.2 0 -0.5
 0.3 0 -0.5
 0.4 0 -0.5
 0.5 0 -0.5
 -0.5 0.1 -0.5
 -0.4 0.1 -0.5
 -0.3 0.1 -0.5
 -0.2 0.1 -0.5
 -0.1 0.1 -0.5
 0 0.1 -0.5
 0.1 0.1 -0.5
 0.2 0.1 -0.5
 0.3 0.1 -0.5
 0.4 0.1 -0.5
 0.5 0.1 -0.5
 -0.5 0.2 -0.5
 -0.4 0.2 -0.5
 -0.3 0.2 -0.5
 -0.2 0.2 -0.5
 -0.1 0.2 -0.5
 0 0.2 -0.5
 0.1 0.2 -0.5
 0.2 0.2 -0.5
 0.3 0.2 -0.5
 0.4 0.2 -0.5
 0.5 0.2 -0.5
 -0.5 0.3 -0.5
 -0.4 0.3 -0.5
 -0.3 0.3 -0.5
 -0.2 0.3 -0.5
 -0.1 0.3 -0.5
 0 0.3 -0.5
 0.1 0.3 -0.5
 0.2 0.3 -0.5
 0.3 0.3 -0.5
 0.4 0.3 -0.5
 0.5 0.3 -0.5
 -0.5 0.4 -0.5
 -0.4 0.4 -0.5
 -0.3 0.4 -0.5
 -0.2 0.4 -0.5
 -0.1 0.4 -0.5
 0 0.4 -0.5
 0.1 0.4 -0.5
 0.2 0.4 -0.5
 0.3 0.4 -0.5
 0.4 0.4 -0.5
 0.5 0.4 -0.5
 -0.5 0.5 -0.5
 -0.4 0.5 -0.5
 -0.3 0.5 -0.5
 -0.2 0.5 -0.5
 -0.1 0.5 -0.5
 0 0.5 -0.5
 0.1 0.5 -0.5
 0.2 0.5 -0.5
 0.3 0.5 -0.5
 0.4 0.5 -0.5
 0.5 0.5 -0.5
 -0.5 -0.5 -0.4
 -0.4 -0.5 -0.4
 -0.3 -0.5 -0.4
 -0.2 -0.5 -0.4
 -0.1 -0.5 -0.4
 0 -0.5 -0.4
 0.1 -0.5 -0.4
 0.2 -0.5 -0.4
 0.3 -0.5 -0.4
 0.4 -0.5 -0.4
 0.5 -0.5 -0.4
 -0.5 -0.4 -0.4
 -0.4 -0.4 -0.4
 -0.3 -0.4 -0.4
 -0.2 -0.4 -0.4
 -0.1 -0.4 -0.4
 0 -0.4 -0.4
 0.1 -0.4 -0.4
 0.2 -0.4 -0.4
 0.3 -0.4 -0.4
 0.4 -0.4 -0.4
 0.5 -0.4 -0.4
 -0.5 -0.3 -0.4
 -0.4 -0.3 -0.4
 -0.3 -0.3 -0.4
 -0.2 -0.3 -0.4
 -0.1 -0.3 -0.4
 0 -0.3 -0.4
 0.1 -0.3 -0.4
 0.2 -0.3 -0.4
 0.3 -0.3 -0.4
 0.4 -0.3 -0.4
 0.5 -0.3 -0.4
 -0.5 -0.2 -0.4
 -0.4 -0.2 -0.4
 -0.3 -0.2 -0.4
 -0.2 -0.2 -0.4
 -0.1 -0.2 -0.4
 0 -0.2 -0.4
 0.1 -0.2 -0.4
 0.2 -0.2 -0.4
 0.3 -0.2 -0.4
 0.4 -0.2 -0.4
 0.5 -0.2 -0.4
 -0.5 -0.1 -0.4
 -0.4 -0.1 -0.4
 -0.3 -0.1 -0.4
 -0.2 -0.1 -0.4
 -0.1 -0.1 -0.4
 0 -0.1 -0.4
 0.1 -0.1 -0.4
 0.2 -0.1 -0.4
 0.3 -0.1 -0.4
 0.4 -0.1 -0.4
 0.5 -0.1 -0.4
 -0.5 0 -0.4
 -0.4 0 -0.4
 -0.3 0 -0.4
 -0.2 0 -0.4
 -0.1 0 -0.4
 0 0 -0.4
 0.1 0 -0.4
 0.2 0 -0.4
 0.3 0 -0.4
 0.4 0 -0.4
 0.5 0 -0.4
 -0.5 0.1 -0.4
 -0.4 0.1 -0.4
 -0.3 0.1 -0.4
 -0.2 0.1 -0.4
 -0.1 0.1 -0.4
 0 0.1 -0.4
 0.1 0.1 -0.4
 0.2 0.1 -0.4
 0.3 0.1 -0.4
 0.4 0.1 -0.4
 0.5 0.1 -0.4
 -0.5 0.2 -0.4
 -0.4 0.2 -0.4
 -0.3 0.2 -0.4
 -0.2 0.2 -0.4
 -0.1 0.2 -0.4
 0 0.2 -0.4
 0.1 0.2 -0.4
 0.2 0.2 -0.4
 0.3 0.2 -0.4
 0.4 0.2 -0.4
 0.5 0.2 -0.4
 -0.5 0.3 -0.4
 -0.4 0.3 -0.4
 -0.3 0.3 -0.4
 -0.2 0.3 -0.4
 -0.1 0.3 -0.4
 0 0.3 -0.4
 0.1 0.3 -0.4
 0.2 0.3 -0.4
 0.3 0.3 -0.4
 0.4 0.3 -0.4
 0.5 0.3 -0.4
 -0.5 0.4 -0.4
 -0.4 0.4 -0.4
 -0.3 0.4 -0.4
 -0.2 0.4 -0.4
 -0.1 0.4 -0.4
 0 0.4 -0.4
 0.1 0.4 -0.4
 0.2 0.4 -0.4
 0.3 0.4 -0.4
 0.4 0.4 -0.4
 0.5 0.4 -0.4
 -0.5 0.5 -0.4
 -0.4 0.5 -0.4
 -0.3 0.5 -0.4
 -0.2 0.5 -0.4
 -0.1 0.5 -0.4
 0 0.5 -0.4
 0.1 0.5 -0.4
 0.2 0.5 -0.4
 0.3 0.5 -0.4
 0.4 0.5 -0.4
 0.5 0.5 -0.4
 -0.5 -0.5 -0.3
 -0.4 -0.5 -0.3
 -0.3 -0.5 -0.3
 -0.2 -0.5 -0.3
 -0.1 -0.5 -0.3
 0 -0.5 -0.3
 0.1 -0.5 -0.3
 0.2 -0.5 -0.3
 0.3 -0.5 -0.3
 0.4 -0.5 -0.3
 0.5 -0.5 -0.3
 -0.5 -0.4 -0.3
 -0.4 -0.4 -0.3
 -0.3 -0.4 -0.3
 -0.2 -0.4 -0.3
 -0.1 -0.4 -0.3
 0 -0.4 -0.3
 0.1 -0.4 -0.3
 0.2 -0.4 -0.3
 0.3 -0.4 -0.3
 0.4 -0.4 -0.3
 0.5 -0.4 -0.3
 -0.5 -0.3 -0.3
 -0.4 -0.3 -0.3
 -0.3 -0.3 -0.3
 -0.2 -0.3 -0.3
 -0.1 -0.3 -0.3
 0 -0.3 -0.3
 0.1 -0.3 -0.3
 0.2 -0.3 -0.3
 0.3 -0.3 -0.3
 0.4 -0.3 -0.3
 0.5 -0.3 -0.3
 -0.5 -0.2 -0.3
 -0.4 -0.2 -0.3
 -0.3 -0.2 -0.3
 -0.2 -0.2 -0.3
 -0.1 -0.2 -0.3
 0 -0.2 -0.3
 0.1 -0.2 -0.3
 0.2 -0.2 -0.3
 0.3 -0.2 -0.3
 0.4 -0.2 -0.3
 0.5 -0.2 -0.3
 -0.5 -0.1 -0.3
 -0.4 -0.1 -0.3
 -0.3 -0.1 -0.3
 -0.2 -0.1 -0.3
 -0.1 -0.1 -0.3
 0 -0.1 -0.3
 0.1 -0.1 -0.3
 0.2 -0.1 -0.3
 0.3 -0.1 -0.3
 0.4 -0.1 -0.3
 0.5 -0.1 -0.3
 -0.5 0 -0.3
 -0.4 0 -0.3
 -0.3 0 -0.3
 -0.2 0 -0.3
 -0.1 0 -0.3
 0 0 -0.3
 0.1 0 -0.3
 0.2 0 -0.3
 0.3 0 -0.3
 0.4 0 -0.3
 0.5 0 -0.3
 -0.5 0.1 -0.3
 -0.4 0.1 -0.3
 -0.3 0.1 -0.3
 -0.2 0.1 -0.3
 -0.1 0.1 -0.3
 0 0.1 -0.3
 0.1 0.1 -0.3
 0.2 0.1 -0.3
 0.3 0.1 -0.3
 0.4 0.1 -0.3
 0.5 0.1 -0.3
 -0.5 0.2 -0.3
 -0.4 0.2 -0.3
 -0.3 0.2 -0.3
 -0.2 0.2 -0.3
 -0.1 0.2 -0.3
 0 0.2 -0.3
 0.1 0.2 -0.3
 0.2 0.2 -0.3
 0.3 0.2 -0.3
 0.4 0.2 -0.3
 0.5 0.2 -0.3
 -0.5 0.3 -0.3
 -0.4 0.3 -0.3
 -0.3 0.3 -0.3
 -0.2 0.3 -0.3
 -0.1 0.3 -0.3
 0 0.3 -0.3
 0.1 0.3 -0.3
 0.2 0.3 -0.3
 0.3 0.3 -0.3
 0.4 0.3 -0.3
 0.5 0.3 -0.3
 -0.5 0.4 -0.3
 -0.4 0.4 -0.3
 -0.3 0.4 -0.3
 -0.2 0.4 -0.3
 -0.1 0.4 -0.3
 0 0.4 -0.3
 0.1 0.4 -0.3
 0.2 0.4 -0.3
 0.3 0.4 -0.3
 0.4 0.4 -0.3
 0.5 0.4 -0.3
 -0.5 0.5 -0.3
 -0.4 0.5 -0.3
 -0.3 0.5 -0.3
 -0.2 0.5 -0.3
 -0.1 0.5 -0.3
 0 0.5 -0.3
 0.1 0.5 -0.3
 0.2 0.5 -0.3
 0.3 0.5 -0.3
 0.4 0.5 -0.3
 0.5 0.5 -0.3
 -0.5 -0.5 -0.2
 -0.4 -0.5 -0.2
 -0.3 -0.5 -0.2
 -0.2 -0.5 -0.2
 -0.1 -0.5 -0.2
 0 -0.5 -0.2
 0.1 -0.5 -0.2
 0.2 -0.5 -0.2
 0.3 -0.5 -0.2
 0.4 -0.5 -0.2
 0.5 -0.5 -0.2
 -0.5 -0.4 -0.2
 -0.4 -0.4 -0.2
 -0.3 -0.4 -0.2
 -0.2 -0.4 -0.2
 -0.1 -0.4 -0.2
 0 -0.4 -0.2
 0.1 -0.4 -0.2
 0.2 -0.4 -0.2
 0.3 -0.4 -0.2
 0.4 -0.4 -0.2
 0.5 -0.4 -0.2
 -0.5 -0.3 -0.2
 -0.4 -0.3 -0.2
 -0.3 -0.3 -0.2
 -0.2 -0.3 -0.2
 -0.1 -0.3 -0.2
 0 -0.3 -0.2
 0.1 -0.3 -0.2
 0.2 -0.3 -0.2
 0.3 -0.3 -0.2
 0.4 -0.3 -0.2
 0.5 -0.3 -0.2
 -0.5 -0.2 -0.2
 -0.4 -0.2 -0.2
 -0.3 -0.2 -0.2
 -0.2 -0.2 -0.2
 -0.1 -0.2 -0.2
 0 -0.2 -0.2
 0.1 -0.2 -0.2
 0.2 -0.2 -0.2
 0.3 -0.2 -0.2
 0.4 -0.2 -0.2
 0.5 -0.2 -0.2
 -0.5 -0.1 -0.2
 -0.4 -0.1 -0.2
 -0.3 -0.1 -0.2
 -0.2 -0.1 -0.2
 -0.1 -0.1 -0.2
 0 -0.1 -0.2
 0.1 -0.1 -0.2
 0.2 -0.1 -0.2
 0.3 -0.1 -0.2
 0.4 -0.1 -0.2
 0.5 -0.1 -0.2
 -0.5 0 -0.2
 -0.4 0 -0.2
 -0.3 0 -0.2
 -0.2 0 -0.2
 -0.1 0 -0.2
 0 0 -0.2
 0.1 0 -0.2
 0.2 0 -0.2
 0.3 0 -0.2
 0.4 0 -0.2
 0.5 0 -0.2
 -0.5 0.1 -0.2
 -0.4 0.1 -0.2
 -0.3 0.1 -0.2
 -0.2 0.1 -0.2
 -0.1 0.1 -0.2
 0 0.1 -0.2
 0.1 0.1 -0.2
 0.2 0.1 -0.2
 0.3 0.1 -0.2
 0.4 0.1 -0.2
 0.5 0.1 -0.2
 -0.5 0.2 -0.2
 -0.4 0.2 -0.2
 -0.3 0.2 -0.2
 -0.2 0.2 -0.2
 -0.1 0.2 -0.2
 0 0.2 -0.2
 0.1 0.2 -0.2
 0.2 0.2 -0.2
 0.3 0.2 -0.2
 0.4 0.2 -0.2
 0.5 0.2 -0.2
 -0.5 0.3 -0.2
 -0.4 0.3 -0.2
 -0.3 0.3 -0.2
 -0.2 0.3 -0.2
 -0.1 0.3 -0.2
 0 0.3 -0.2
 0.1 0.3 -0.2
 0.2 0.3 -0.2
 0.3 0.3 -0.2
 0.4 0.3 -0.2
 0.5 0.3 -0.2
 -0.5 0.4 -0.2
 -0.4 0.4 -0.2
 -0.3 0.4 -0.2
 -0.2 0.4 -0.2
 -0.1 0.4 -0.2
 0 0.4 -0.2
 0.1 0.4 -0.2
 0.2 0.4 -0.2
 0.3 0.4 -0.2
 0.4 0.4 -0.2
 0.5 0.4 -0.2
 -0.5 0.5 -0.2
 -0.4 0.5 -0.2
 -0.3 0.5 -0.2
 -0.2 0.5 -0.2
 -0.1 0.5 -0.2
 0 0.5 -0.2
 0.1 0.5 -0.2
 0.2 0.5 -0.2
 0.3 0.5 -0.2
 0.4 0.5 -0.2
 0.5 0.5 -0.2
 -0.5 -0.5 -0.1
 -0.4 -0.5 -0.1
 -0.3 -0.5 -0.1
 -0.2 -0.5 -0.1
 -0.1 -0.5 -0.1
 0 -0.5 -0.1
 0.1 -0.5 -0.1
 0.2 -0.5 -0.1
 0.3 -0.5 -0.1
 0.4 -0.5 -0.1
 0.5 -0.5 -0.1
 -0.5 -0.4 -0.1
 -0.4 -0.4 -0.1
 -0.3 -0.4 -0.1
 -0.2 -0.4 -0.1
 -0.1 -0.4 -0.1
 0 -0.4 -0.1
 0.1 -0.4 -0.1
 0.2 -0.4 -0.1
 0.3 -0.4 -0.1
 0.4 -0.4 -0.1
 0.5 -0.4 -0.1
 -0.5 -0.3 -0.1
 -0.4 -0.3 -0.1
 -0.3 -0.3 -0.1
 -0.2 -0.3 -0.1
 -0.1 -0.3 -0.1
 0 -0.3 -0.1
 0.1 -0.3 -0.1
 0.2 -0.3 -0.1
 0.3 -0.3 -0.1
 0.4 -0.3 -0.1
 0.5 -0.3 -0.1
 -0.5 -0.2 -0.1
 -0.4 -0.2 -0.1
 -0.3 -0.2 -0.1
 -0.2 -0.2 -0.1
 -0.1 -0.2 -0.1
 0 -0.2 -0.1
 0.1 -0.2 -0.1
 0.2 -0.2 -0.1
 0.3 -0.2 -0.1
 0.4 -0.2 -0.1
 0.5 -0.2 -0.1
 -0.5 -0.1 -0.1
 -0.4 -0.1 -0.1
 -0.3 -0.1 -0.1
 -0.2 -0.1 -0.1
 -0.1 -0.1 -0.1
 0 -0.1 -0.1
 0.1 -0.1 -0.1
 0.2 -0.1 -0.1
 0.3 -0.1 -0.1
 0.4 -0.1 -0.1
 0.5 -0.1 -0.1
 -0.5 0 -0.1
 -0.4 0 -0.1
 -0.3 0 -0.1
 -0.2 0 -0.1
 -0.1 0 -0.1
 0 0 -0.1
 0.1 0 -0.1
 0.2 0 -0.1
 0.3 0 -0.1
 0.4 0 -0.1
 0.5 0 -0.1
 -0.5 0.1 -0.1
 -0.4 0.1 -0.1
 -0.3 0.1 -0.1
 -0.2 0.1 -0.1
 -0.1 0.1 -0.1
 0 0.1 -0.1
 0.1 0.1 -0.1
 0.2 0.1 -0.1
 0.3 0.1 -0.1
 0.4 0.1 -0.1
 0.5 0.1 -0.1
 -0.5 0.2 -0.1
 -0.4 0.2 -0.1
 -0.3 0.2 -0.1
 -0.2 0.2 -0.1
 -0.1 0.2 -0.1
 0 0.2 -0.1
 0.1 0.2 -0.1
 0.2 0.2 -0.1
 0.3 0.2 -0.1
 0.4 0.2 -0.1
 0.5 0.2 -0.1
 -0.5 0.3 -0.1
 -0.4 0.3 -0.1
 -0.3 0.3 -0.1
 -0.2 0.3 -0.1
 -0.1 0.3 -0.1
 0 0.3 -0.1
 0.1 0.3 -0.1
 0.2 0.3 -0.1
 0.3 0.3 -0.1
 0.4 0.3 -0.1
 0.5 0.3 -0.1
 -0.5 0.4 -0.1
 -0.4 0.4 -0.1
 -0.3 0.4 -0.1
 -0.2 0.4 -0.1
 -0.1 0.4 -0.1
 0 0.4 -0.1
 0.1 0.4 -0.1
 0.2 0.4 -0.1
 0.3 0.4 -0.1
 0.4 0.4 -0.1
 0.5 0.4 -0.1
 -0.5 0.5 -0.1
 -0.4 0.5 -0.1
 -0.3 0.5 -0.1
 -0.2 0.5 -0.1
 -0.1 0.5 -0.1
 0 0.5 -0.1
 0.1 0.5 -0.1
 0.2 0.5 -0.1
 0.3 0.5 -0.1
 0.4 0.5 -0.1
 0.5 0.5 -0.1
 -0.5 -0.5 0
 -0.4 -0.5 0
 -0.3 -0.5 0
 -0.2 -0.5 0
 -0.1 -0.5 0
 0 -0.5 0
 0.1 -0.5 0
 0.2 -0.5 0
 0.3 -0.5 0
 0.4 -0.5 0
 0.5 -0.5 0
 -0.5 -0.4 0
 -0.4 -0.4 0
 -0.3 -0.4 0
 -0.2 -0.4 0
 -0.1 -0.4 0
 0 -0.4 0
 0.1 -0.4 0
 0.2 -0.4 0
 0.3 -0.4 0
 0.4 -0.4 0
 0.5 -0.4 0
 -0.5 -0.3 0
 -0.4 -0.3 0
 -0.3 -0.3 0
 -0.2 -0.3 0
 -0.1 -0.3 0
 0 -0.3 0
 0.1 -0.3 0
 0.2 -0.3 0
 0.3 -0.3 0
 0.4 -0.3 0
 0.5 -0.3 0
 -0.5 -0.2 0
 -0.4 -0.2 0
 -0.3 -0.2 0
 -0.2 -0.2 0
 -0.1 -0.2 0
 0 -0.2 0
 0.1 -0.2 0
 0.2 -0.2 0
 0.3 -0.2 0
 0.4 -0.2 0
 0.5 -0.2 0
 -0.5 -0.1 0
 -0.4 -0.1 0
 -0.3 -0.1 0
 -0.2 -0.1 0
 -0.1 -0.1 0
 0 -0.1 0
 0.1 -0.1 0
 0.2 -0.1 0
 0.3 -0.1 0
 0.4 -0.1 0
 0.5 -0.1 0
 -0.5 0 0
 -0.4 0 0
 -0.3 0 0
 -0.2 0 0
 -0.1 0 0
 0 0 0
 0.1 0 0
 0.2 0 0
 0.3 0 0
 0.4 0 0
 0.5 0 0
 -0.5 0.1 0
 -0.4 0.1 0
 -0.3 0.1 0
 -0.2 0.1 0
 -0.1 0.1 0
 0 0.1 0
 0.1 0.1 0
 0.2 0.1 0
 0.3 0.1 0
 0.4 0.1 0
 0.5 0.1 0
 -0.5 0.2 0
 -0.4 0.2 0
 -0.3 0.2 0
 -0.2 0.2 0
 -0.1 0.2 0
 0 0.2 0
 0.1 0.2 0
 0.2 0.2 0
 0.3 0.2 0
 0.4 0.2 0
 0.5 0.2 0
 -0.5 0.3 0
 -0.4 0.3 0
[...]
CELL_DATA 1000
FIELD DOMAIN 2
VOL_DIV_q 1 1000 FLOAT 
 2.22
 2.14441
 2.2172
 2.19841
 2.16234
 2.19653
 2.15453
 2.19336
 2.20654
 2.21223
 2.10529
 2.19596
 2.19837
 2.21359
 2.23133
 2.2262
 2.19869
 2.13449
 2.1658
 2.29057
 2.27143
 2.12347
 2.15566
 2.24973
 2.24651
 2.2678
 2.21477
 2.27425
 2.30712
 2.20281
 2.18123
 2.14923
 2.13946
 2.22207
 2.26883
 2.18134
 2.16988
 2.22591
 2.25369
 2.2277
 2.22502
 2.23626
 2.24043
 2.21567
 2.19836
 2.26515
 2.25839
 2.28503
 2.20377
 2.23942
 2.17431
 2.22799
 2.21038
 2.24817
 2.18534
 2.17184
 2.14489
 2.16586
 2.29192
 2.29156
 2.17426
 2.16742
 2.1894
 2.20281
 2.19276
 2.20169
 2.14077
 2.25119
 2.21168
 2.17469
 2.276
 2.27912
 2.13923
 2.14729
 2.1879
 2.34934
 2.19027
 2.19086
 2.23908
 2.18721
 2.1924
 2.20602
 2.16099
 2.13728
 2.15572
 2.15451
 2.11635
 2.14168
 2.22053
 2.21581
 2.24879
 2.16375
 2.17626
 2.26236
 2.19761
 2.19957
 2.17231
 2.21564
 2.13957
 2.11873
 1.24826
 1.3081
 1.30037
 1.35235
 1.25146
 1.24253
 1.28734
 1.31143
 1.23554
 1.29516
 1.24851
 1.26682
 1.23956
 1.23749
 1.2737
 1.25356
 1.24456
 1.26326
 1.26195
 1.24594
 1.29658
 1.30221
 1.23735
 1.27888
 1.25895
 1.25353
 1.30557
 1.26542
 1.26297
 1.23012
 1.20601
 1.34777
 1.30895
 1.28461
 1.33287
 1.2918
 1.2463
 1.25029
 1.27717
 1.2972
 1.25526
 1.28369
 1.22599
 1.26478
 1.31376
 1.27208
 1.2556
 1.27349
 1.30634
 1.27076
 1.24303
 1.32701
 1.26012
 1.24396
 1.27702
 1.27356
 1.29377
 1.2959
 1.33884
 1.19901
 1.29055
 1.24973
 1.21472
 1.27607
 1.25316
 1.23969
 1.29993
 1.27748
 1.28052
 1.23074
 1.26272
 1.2831
 1.28752
 1.29262
 1.30054
 1.29604
 1.2452
 1.25232
 1.30418
 1.28801
 1.28467
 1.24191
 1.30776
 1.25994
 1.33277
 1.21901
 1.21264
 1.28362
 1.31318
 1.28118
 1.26841
 1.29973
 1.2985
 1.27541
 1.22467
 1.3223
 1.34647
 1.19647
 1.32059
 1.27924
 0.809511
 0.822908
 0.7972
 0.754164
 0.777181
 0.767967
 0.828779
 0.763967
 0.789048
 0.802973
 0.811592
 0.740547
 0.767622
 0.81558
 0.81101
 0.803281
 0.790239
 0.780104
 0.778877
 0.799707
 0.750238
 0.791473
 0.790967
 0.752815
 0.687846
 0.776676
 0.7941
 0.7584
 0.774527
 0.8252
 0.781555
 0.809644
 0.833073
 0.82508
 0.749736
 0.751636
 0.838143
 0.831767
 0.753997
 0.755139
 0.800417
 0.75107
 0.825941
 0.790337
 0.765431
 0.769654
 0.794546
 0.763697
 0.782327
 0.799229
 0.775087
 0.730636
 0.789994
 0.794373
 0.823791
 0.788152
 0.775404
 0.755838
 0.776373
 0.775457
 0.721033
 0.808321
 0.765743
 0.820121
 0.782194
 0.764041
 0.804421
 0.734278
 0.73901
 0.850761
 0.80839
 0.802653
 0.758139
 0.766558
 0.795242
 0.790339
 0.802578
 0.764616
 0.804512
 0.795391
 0.745822
 0.764859
 0.803356
 0.800621
 0.777196
 0.764468
 0.778783
 0.761904
 0.799514
 0.71194
 0.768767
 0.827199
 0.782157
 0.766508
 0.792749
 0.798443
 0.777356
 0.774085
 0.784401
 0.802175
 0.490502
 0.511037
 0.509225
 0.566117
 0.479137
 0.488275
 0.460231
 0.474854
 0.483398
 0.536832
 0.500401
 0.508973
 0.491947
 0.50771
 0.49116
 0.496575
 0.52011
 0.522076
 0.504687
 0.52774
 0.511881
 0.500064
 0.514017
 0.495835
 0.515236
 0.498667
 0.505226
 0.512891
 0.520565
 0.564702
 0.518598
 0.55562
 0.519078
 0.504202
 0.538516
 0.48955
 0.513943
 0.553555
 0.540141
 0.523841
 0.472484
 0.510159
 0.536577
 0.513639
 0.504235
 0.492767
 0.482267
 0.519501
 0.526803
 0.541513
 0.509746
 0.508067
 0.492343
 0.4936
 0.530544
 0.521265
 0.527707
 0.51095
 0.515769
 0.51063
 0.548953
 0.485866
 0.493364
 0.484064
 0.505373
 0.478326
 0.534369
 0.531178
 0.472781
 0.551532
 0.51657
 0.526982
 0.518007
 0.549188
 0.540099
 0.503551
 0.515279
 0.49686
 0.558664
 0.509638
 0.5318
 0.546063
 0.547703
 0.498277
 0.555629
 0.548165
 0.545955
 0.486475
 0.510842
 0.50768
 0.514862
 0.491451
 0.542077
 0.532371
 0.559849
 0.548035
 0.52419
 0.551532
 0.527849
 0.564765
 0.400525
 0.403402
 0.416892
 0.38739
 0.386061
 0.393809
 0.40891
 0.407893
 0.392557
 0.39434
 0.401545
 0.442359
 0.398822
 0.42073
 0.403389
 0.409471
 0.421783
 0.405924
 0.411758
 0.429585
 0.400952
 0.398034
 0.424675
 0.40978
 0.431084
 0.423521
 0.39337
 0.356424
 0.394133
 0.378863
 0.395299
 0.415268
 0.383942
 0.398942
 0.406296
 0.417258
 0.419802
 0.393158
 0.403456
 0.38241
 0.448954
 0.413564
 0.405744
 0.400841
 0.400903
 0.394054
 0.431178
 0.403369
 0.395774
 0.414469
 0.409482
 0.407219
 0.433423
 0.398202
 0.412185
 0.429553
 0.380063
 0.412699
 0.418635
 0.381451
 0.411553
 0.377315
 0.404915
 0.40758
 0.389245
 0.421718
 0.407368
 0.390809
 0.404116
 0.405023
 0.390884
 0.398116
 0.412328
 0.437965
 0.402307
 0.398848
 0.402264
 0.426263
 0.395241
 0.436579
 0.381562
 0.395202
 0.386804
 0.402706
 0.378993
 0.411333
 0.392133
 0.413175
 0.410507
 0.401796
 0.433632
 0.384796
 0.405324
 0.414938
 0.410768
 0.404686
 0.423102
 0.387908
 0.403893
 0.395898
 0.415751
 0.371314
 0.415652
 0.414558
 0.402891
 0.379252
 0.385708
 0.421157
 0.375443
 0.399253
 0.402343
 0.409674
 0.382857
 0.381444
 0.40676
 0.383246
 0.387009
 0.424561
 0.376465
 0.383596
 0.421722
 0.409291
 0.375008
 0.403967
 0.403038
 0.368999
 0.418641
 0.43148
 0.39016
 0.412412
 0.388796
 0.418973
 0.396295
 0.403226
 0.384839
 0.405432
 0.411483
 0.401471
 0.384785
 0.390108
 0.380316
 0.39671
 0.400445
 0.418815
 0.44014
 0.370284
 0.361569
 0.408784
 0.395716
 0.393121
 0.384761
 0.396868
 0.386832
 0.405805
 0.431794
 0.373503
 0.403645
 0.372883
 0.378612
 0.429331
 0.409027
 0.388933
 0.390353
 0.410467
 0.409552
 0.40018
 0.409757
 0.404545
 0.408495
 0.391887
 0.389969
 0.429378
 0.390533
 0.426635
 0.393071
 0.43727
 0.381629
 0.426836
 0.407825
 0.384664
 0.398642
 0.403735
 0.414905
 0.409127
 0.431781
 0.407853
 0.419771
 0.38477
 0.408089
 0.372156
 0.404835
 0.427784
 0.400637
 0.396112
 0.41598
 0.378861
 0.383031
 0.418111
 0.408357
 0.406545
 0.526132
 0.510136
 0.494036
 0.512166
 0.526525
 0.517823
 0.532789
 0.497341
 0.509901
 0.528189
 0.502907
 0.498475
 0.530935
 0.507982
 0.486618
 0.504736
 0.530926
 0.509164
 0.519143
 0.5063
 0.534827
 0.526205
 0.519979
 0.49934
 0.509462
 0.507844
 0.50315
 0.516898
 0.531403
 0.509526
 0.544094
 0.513595
 0.493822
 0.497337
 0.506961
 0.535502
 0.511878
 0.498083
 0.536387
 0.486932
 0.56687
 0.480839
 0.531021
 0.504826
 0.545178
 0.50305
 0.52125
 0.513315
 0.476668
 0.539665
 0.50611
 0.50659
 0.52032
 0.510983
 0.513116
 0.454982
 0.517328
 0.533531
 0.548959
 0.526094
 0.488806
 0.51588
 0.491516
 0.54648
 0.520999
 0.52603
 0.502407
 0.497501
 0.539609
 0.50762
 0.495008
 0.535168
 0.475057
 0.523003
 0.516723
 0.50642
 0.521041
 0.507106
 0.557264
 0.523507
 0.538102
 0.523086
 0.57957
 0.481306
 0.52537
 0.474236
 0.525198
 0.501442
 0.484512
 0.539599
 0.525604
 0.531834
 0.515359
 0.52938
 0.497785
 0.514392
 0.518108
 0.534379
 0.514001
 0.495209
 0.770919
 0.748351
 0.809332
 0.77214
 0.717665
 0.791271
 0.755015
 0.797078
 0.829099
 0.789771
 0.757505
 0.75686
 0.747304
 0.81486
 0.797091
 0.79128
 0.739251
 0.77741
 0.778927
 0.812181
 0.74974
 0.780338
 0.796567
 0.762556
 0.703976
 0.728835
 0.747127
 0.758569
 0.765225
 0.766887
 0.792063
 0.827708
 0.788313
 0.802554
 0.790436
 0.784739
 0.809043
 0.812649
 0.76709
 0.751402
 0.731553
 0.782177
 0.764606
 0.766026
 0.72657
 0.770049
 0.777014
 0.786158
 0.731903
 0.806408
 0.782023
 0.800721
 0.776764
 0.772504
 0.75819
 0.80833
 0.81032
 0.80814
 0.798559
 0.783655
 0.815911
 0.756558
 0.758215
 0.76529
 0.762459
 0.805113
 0.798908
 0.766333
 0.774845
 0.796312
 0.728896
 0.790268
 0.760543
 0.820829
 0.805938
 0.815386
 0.822576
 0.804286
 0.77713
 0.78537
 0.724214
 0.728053
 0.780763
 0.795266
 0.756588
 0.762958
 0.760262
 0.835528
 0.799209
 0.775834
 0.782585
 0.801211
 0.758527
 0.774687
 0.800883
 0.754242
 0.814104
 0.730051
 0.814423
 0.811275
 1.2753
 1.24896
 1.26087
 1.26549
 1.24792
 1.23646
 1.23134
 1.2609
 1.26543
 1.30419
 1.25352
 1.28539
 1.27163
 1.25963
 1.18498
 1.33119
 1.28043
 1.21304
 1.26334
 1.30298
 1.27106
 1.29228
 1.26127
 1.24322
 1.26335
 1.31554
 1.28868
 1.28745
 1.31087
 1.32573
 1.29892
 1.23415
 1.28247
 1.25924
 1.25387
 1.2996
 1.32335
 1.25387
 1.26935
 1.2395
 1.36203
 1.27001
 1.25831
 1.24893
 1.30042
 1.32577
 1.29357
 1.33962
 1.20622
 1.28778
 1.28206
 1.34472
 1.28572
 1.24414
 1.21999
 1.28148
 1.2376
 1.27967
 1.26059
 1.2686
 1.26192
 1.26337
 1.21144
 1.28991
 1.25215
 1.27367
 1.29139
 1.2584
 1.25703
 1.32776
 1.23203
 1.29449
 1.25512
 1.25175
 1.24842
 1.306
 1.29576
 1.22296
 1.19798
 1.22426
 1.27208
 1.22752
 1.27018
 1.29381
 1.30797
 1.27063
 1.30119
 1.32612
 1.24646
 1.35874
 1.21755
 1.22346
 1.28825
 1.30766
 1.28654
 1.24327
 1.32598
 1.33564
 1.27926
 1.2599
 2.15326
 2.24666
 2.24826
 2.30068
 2.22457
 2.19878
 2.18745
 2.22059
 2.27643
 2.19818
 2.21876
 2.15423
 2.26451
 2.20784
 2.16724
 2.25619
 2.21244
 2.21172
 2.19037
 2.20223
 2.31047
 2.26132
 2.25196
 2.1874
 2.19206
 2.22072
 2.16398
 2.17381
 2.20221
 2.25463
 2.24623
 2.17057
 2.14613
 2.21945
 2.19122
 2.21671
 2.18436
 2.14201
 2.19291
 2.22696
 2.23301
 2.23171
 2.23618
 2.19052
 2.20771
 2.18223
 2.21512
 2.20114
 2.19019
 2.15889
 2.22499
 2.20982
 2.22236
 2.16089
 2.19689
 2.23187
 2.25048
 2.21916
 2.17943
 2.25874
 2.29826
 2.23446
 2.17679
 2.19832
 2.20014
 2.29081
 2.15258
 2.19629
 2.27064
 2.20141
 2.17593
 2.12792
 2.22199
 2.19125
 2.30932
 2.26053
 2.24669
 2.19889
 2.17735
 2.13267
 2.20746
 2.14974
 2.19748
 2.17574
 2.26255
 2.19836
 2.23834
 2.15167
 2.16405
 2.19653
 2.14842
 2.16755
 2.24991
 2.22612
 2.26802
 2.24433
 2.25131
 2.25969
 2.18221
 2.21351

Vol_HEAT_Q 1 1000 FLOAT 
 0.00222
 0.00214441
 0.0022172
 0.00219841
 0.00216234
 0.00219653
 0.00215453
 0.00219336
 0.00220654
 0.00221223
 0.00210529
 0.00219596
 0.00219837
 0.00221359
 0.00223133
 0.0022262
 0.00219869
 0.00213449
 0.0021658
 0.00229057
 0.00227143
 0.00212347
 0.00215566
 0.00224973
 0.00224651
 0.0022678
 0.00221477
 0.00227425
 0.00230712
 0.00220281
 0.00218123
 0.00214923
 0.00213946
 0.00222207
 0.00226883
 0.00218134
 0.00216988
 0.00222591
 0.00225369
 0.0022277
 0.00222502
 0.00223626
 0.00224043
 0.00221567
 0.00219836
 0.00226515
 0.00225839
 0.00228503
 0.00220377
 0.00223942
 0.00217431
 0.00222799
 0.00221038
 0.00224817
 0.00218534
 0.00217184
 0.00214489
 0.00216586
 0.00229192
 0.00229156
 0.00217426
 0.00216742
 0.0021894
 0.00220281
 0.00219276
 0.00220169
 0.00214077
 0.00225119
 0.00221168
 0.00217469
 0.002276
 0.00227912
 0.00213923
 0.00214729
 0.0021879
 0.00234934
 0.00219027
 0.00219086
 0.00223908
 0.00218721
 0.0021924
 0.00220602
 0.00216099
 0.00213728
 0.00215572
 0.00215451
 0.00211635
 0.00214168
 0.00222053
 0.00221581
 0.00224879
 0.00216375
 0.00217626
 0.00226236
 0.00219761
 0.00219957
 0.00217231
 0.00221564
 0.00213957
 0.00211873
 0.00124826
 0.0013081
 0.00130037
 0.00135235
 0.00125146
 0.00124253
 0.00128734
 0.00131143
 0.00123554
 0.00129516
 0.00124851
 0.00126682
 0.00123956
 0.00123749
 0.0012737
 0.00125356
 0.00124456
 0.00126326
 0.00126195
 0.00124594
 0.00129658
 0.00130221
 0.00123735
 0.00127888
 0.00125895
 0.00125353
 0.00130557
 0.00126542
 0.00126297
 0.00123012
 0.00120601
 0.00134777
 0.00130895
 0.00128461
 0.00133287
 0.0012918
 0.0012463
 0.00125029
 0.00127717
 0.0012972
 0.00125526
 0.00128369
 0.00122599
 0.00126478
 0.00131376
 0.00127208
 0.0012556
 0.00127349
 0.00130634
 0.00127076
 0.00124303
 0.00132701
 0.00126012
 0.00124396
 0.00127702
 0.00127356
 0.00129377
 0.0012959
 0.00133884
 0.00119901
 0.00129055
 0.00124973
 0.00121472
 0.00127607
 0.00125316
 0.00123969
 0.00129993
 0.00127748
 0.00128052
 0.00123074
 0.00126272
 0.0012831
 0.00128752
 0.00129262
 0.00130054
 0.00129604
 0.0012452
 0.00125232
 0.00130418
 0.00128801
 0.00128467
 0.00124191
 0.00130776
 0.00125994
 0.00133277
 0.00121901
 0.00121264
 0.00128362
 0.00131318
 0.00128118
 0.00126841
 0.00129973
 0.0012985
 0.00127541
 0.00122467
 0.0013223
 0.00134647
 0.00119647
 0.00132059
 0.00127924
 0.000809511
 0.000822908
 0.0007972
 0.000754164
 0.000777181
 0.000767967
 0.000828779
 0.000763967
 0.000789048
 0.000802973
 0.000811592
 0.000740547
 0.000767622
 0.00081558
 0.00081101
 0.000803281
 0.000790239
 0.000780104
 0.000778877
 0.000799707
 0.000750238
 0.000791473
 0.000790967
 0.000752815
 0.000687846
 0.000776676
 0.0007941
 0.0007584
 0.000774527
 0.0008252
 0.000781555
 0.000809644
 0.000833073
 0.00082508
 0.000749736
 0.000751636
 0.000838143
 0.000831767
 0.000753997
 0.000755139
 0.000800417
 0.00075107
 0.000825941
 0.000790337
 0.000765431
 0.000769654
 0.000794546
 0.000763697
 0.000782327
 0.000799229
 0.000775087
 0.000730636
 0.000789994
 0.000794373
 0.000823791
 0.000788152
 0.000775404
 0.000755838
 0.000776373
 0.000775457
 0.000721033
 0.000808321
 0.000765743
 0.000820121
 0.000782194
 0.000764041
 0.000804421
 0.000734278
 0.00073901
 0.000850761
 0.00080839
 0.000802653
 0.000758139
 0.000766558
 0.000795242
 0.000790339
 0.000802578
 0.000764616
 0.000804512
 0.000795391
 0.000745822
 0.000764859
 0.000803356
 0.000800621
 0.000777196
 0.000764468
 0.000778783
 0.000761904
 0.000799514
 0.00071194
 0.000768767
 0.000827199
 0.000782157
 0.000766508
 0.000792749
 0.000798443
 0.000777356
 0.000774085
 0.000784401
 0.000802175
 0.000490502
 0.000511037
 0.000509225
 0.000566117
 0.000479137
 0.000488275
 0.000460231
 0.000474854
 0.000483398
 0.000536832
 0.000500401
 0.000508973
 0.000491947
 0.00050771
 0.00049116
 0.000496575
 0.00052011
 0.000522076
 0.000504687
 0.00052774
 0.000511881
 0.000500064
 0.000514017
 0.000495835
 0.000515236
 0.000498667
 0.000505226
 0.000512891
 0.000520565
 0.000564702
 0.000518598
 0.00055562
 0.000519078
 0.000504202
 0.000538516
 0.00048955
 0.000513943
 0.000553555
 0.000540141
 0.000523841
 0.000472484
 0.000510159
 0.000536577
 0.000513639
 0.000504235
 0.000492767
 0.000482267
 0.000519501
 0.000526803
 0.000541513
 0.000509746
 0.000508067
 0.000492343
 0.0004936
 0.000530544
 0.000521265
 0.000527707
 0.00051095
 0.000515769
 0.00051063
 0.000548953
 0.000485866
 0.000493364
 0.000484064
 0.000505373
 0.000478326
 0.000534369
 0.000531178
 0.000472781
 0.000551532
 0.00051657
 0.000526982
 0.000518007
 0.000549188
 0.000540099
 0.000503551
 0.000515279
 0.00049686
 0.000558664
 0.000509638
 0.0005318
 0.000546063
 0.000547703
 0.000498277
 0.000555629
 0.000548165
 0.000545955
 0.000486475
 0.000510842
 0.00050768
 0.000514862
 0.000491451
 0.000542077
 0.000532371
 0.000559849
 0.000548035
 0.00052419
 0.000551532
 0.000527849
 0.000564765
 0.000400525
 0.000403402
 0.000416892
 0.00038739
 0.000386061
 0.000393809
 0.00040891
 0.000407893
 0.000392557
 0.00039434
 0.000401545
 0.000442359
 0.000398822
 0.00042073
 0.000403389
 0.000409471
 0.000421783
 0.000405924
 0.000411758
 0.000429585
 0.000400952
 0.000398034
 0.000424675
 0.00040978
 0.000431084
 0.000423521
 0.00039337
 0.000356424
 0.000394133
 0.000378863
 0.000395299
 0.000415268
 0.000383942
 0.000398942
 0.000406296
 0.000417258
 0.000419802
 0.000393158
 0.000403456
 0.00038241
 0.000448954
 0.000413564
 0.000405744
 0.000400841
 0.000400903
 0.000394054
 0.000431178
 0.000403369
 0.000395774
 0.000414469
 0.000409482
 0.000407219
 0.000433423
 0.000398202
 0.000412185
 0.000429553
 0.000380063
 0.000412699
 0.000418635
 0.000381451
 0.000411553
 0.000377315
 0.000404915
 0.00040758
 0.000389245
 0.000421718
 0.000407368
 0.000390809
 0.000404116
 0.000405023
 0.000390884
 0.000398116
 0.000412328
 0.000437965
 0.000402307
 0.000398848
 0.000402264
 0.000426263
 0.000395241
 0.000436579
 0.000381562
 0.000395202
 0.000386804
 0.000402706
 0.000378993
 0.000411333
 0.000392133
 0.000413175
 0.000410507
 0.000401796
 0.000433632
 0.000384796
 0.000405324
 0.000414938
 0.000410768
 0.000404686
 0.000423102
 0.000387908
 0.000403893
 0.000395898
 0.000415751
 0.000371314
 0.000415652
 0.000414558
 0.000402891
 0.000379252
 0.000385708
 0.000421157
 0.000375443
 0.000399253
 0.000402343
 0.000409674
 0.000382857
 0.000381444
 0.00040676
 0.000383246
 0.000387009
 0.000424561
 0.000376465
 0.000383596
 0.000421722
 0.000409291
 0.000375008
 0.000403967
 0.000403038
 0.000368999
 0.000418641
 0.00043148
 0.00039016
 0.000412412
 0.000388796
 0.000418973
 0.000396295
 0.000403226
 0.000384839
 0.000405432
 0.000411483
 0.000401471
 0.000384785
 0.000390108
 0.000380316
 0.00039671
 0.000400445
 0.000418815
 0.00044014
 0.000370284
 0.000361569
 0.000408784
 0.000395716
 0.000393121
 0.000384761
 0.000396868
 0.000386832
 0.000405805
 0.000431794
 0.000373503
 0.000403645
 0.000372883
 0.000378612
 0.000429331
 0.000409027
 0.000388933
 0.000390353
 0.000410467
 0.000409552
 0.00040018
 0.000409757
 0.000404545
 0.000408495
 0.000391887
 0.000389969
 0.000429378
 0.000390533
 0.000426635
 0.000393071
 0.00043727
 0.000381629
 0.000426836
 0.000407825
 0.000384664
 0.000398642
 0.000403735
 0.000414905
 0.000409127
 0.000431781
 0.000407853
 0.000419771
 0.00038477
 0.000408089
 0.000372156
 0.000404835
 0.000427784
 0.000400637
 0.000396112
 0.00041598
 0.000378861
 0.000383031
 0.000418111
 0.000408357
 0.000406545
 0.000526132
 0.000510136
 0.000494036
 0.000512166
 0.000526525
 0.000517823
 0.000532789
 0.000497341
 0.000509901
 0.000528189
 0.000502907
 0.000498475
 0.000530935
 0.000507982
 0.000486618
 0.000504736
 0.000530926
 0.000509164
 0.000519143
 0.0005063
 0.000534827
 0.000526205
 0.000519979
 0.00049934
 0.000509462
 0.000507844
 0.00050315
 0.000516898
 0.000531403
 0.000509526
 0.000544094
 0.000513595
 0.000493822
 0.000497337
 0.000506961
 0.000535502
 0.000511878
 0.000498083
 0.000536387
 0.000486932
 0.00056687
 0.000480839
 0.000531021
 0.000504826
 0.000545178
 0.00050305
 0.00052125
 0.000513315
 0.000476668
 0.000539665
 0.00050611
 0.00050659
 0.00052032
 0.000510983
 0.000513116
 0.000454982
 0.000517328
 0.000533531
 0.000548959
 0.000526094
 0.000488806
 0.00051588
 0.000491516
 0.00054648
 0.000520999
 0.00052603
 0.000502407
 0.000497501
 0.000539609
 0.00050762
 0.000495008
 0.000535168
 0.000475057
 0.000523003
 0.000516723
 0.00050642
 0.000521041
 0.000507106
 0.000557264
 0.000523507
 0.000538102
 0.000523086
 0.00057957
 0.000481306
 0.00052537
 0.000474236
 0.000525198
 0.000501442
 0.000484512
 0.000539599
 0.000525604
 0.000531834
 0.000515359
 0.00052938
 0.000497785
 0.000514392
 0.000518108
 0.000534379
 0.000514001
 0.000495209
 0.000770919
 0.000748351
 0.000809332
 0.00077214
 0.000717665
 0.000791271
 0.000755015
 0.000797078
 0.000829099
 0.000789771
 0.000757505
 0.00075686
 0.000747304
 0.00081486
 0.000797091
 0.00079128
 0.000739251
 0.00077741
 0.000778927
 0.000812181
 0.00074974
 0.000780338
 0.000796567
 0.000762556
 0.000703976
 0.000728835
 0.000747127
 0.000758569
 0.000765225
 0.000766887
 0.000792063
 0.000827708
 0.000788313
 0.000802554
 0.000790436
 0.000784739
 0.000809043
 0.000812649
 0.00076709
 0.000751402
 0.000731553
 0.000782177
 0.000764606
 0.000766026
 0.00072657
 0.000770049
 0.000777014
 0.000786158
 0.000731903
 0.000806408
 0.000782023
 0.000800721
 0.000776764
 0.000772504
 0.00075819
 0.00080833
 0.00081032
 0.00080814
 0.000798559
 0.000783655
 0.000815911
 0.000756558
 0.000758215
 0.00076529
 0.000762459
 0.000805113
 0.000798908
 0.000766333
 0.000774845
 0.000796312
 0.000728896
 0.000790268
 0.000760543
 0.000820829
 0.000805938
 0.000815386
 0.000822576
 0.000804286
 0.00077713
 0.00078537
 0.000724214
 0.000728053
 0.000780763
 0.000795266
 0.000756588
 0.000762958
 0.000760262
 0.000835528
 0.000799209
 0.000775834
 0.000782585
 0.000801211
 0.000758527
 0.000774687
 0.000800883
 0.000754242
 0.000814104
 0.000730051
 0.000814423
 0.000811275
 0.0012753
 0.00124896
 0.00126087
 0.00126549
 0.00124792
 0.00123646
 0.00123134
 0.0012609
 0.00126543
 0.00130419
 0.00125352
 0.00128539
 0.00127163
 0.00125963
 0.00118498
 0.00133119
 0.00128043
 0.00121304
 0.00126334
 0.00130298
 0.00127106
 0.00129228
 0.00126127
 0.00124322
 0.00126335
 0.00131554
 0.00128868
 0.00128745