# vtk DataFile Version 2.0
Three-D cube divergence of heat flux and Q in volume elements
ASCII
DATASET UNSTRUCTURED_GRID

POINTS  1331  FLOAT
 -0.5 -0.5 -0.5
 -0.4 -0.5 -0.5
 -0.3 -0.5 -0.5
 -0.2 -0.5 -0.5
 -0.1 -0.5 -0.5
 0 -0.5 -0.5
 0.1 -0.5 -0.5
 0.2 -0.5 -0.5
 0.3 -0.5 -0.5
 0.4 -0.5 -0.5
 0.5 -0.5 -0.5
 -0.5 -0.4 -0.5
 -0.4 -0.4 -0.5
 -0.3 -0.4 -0.5
 -0.2 -0.4 -0.5
 -0.1 -0.4 -0.5
 0 -0.4 -0.5
 0.1 -0.4 -0.5
 0.2 -0.4 -0.5
 0.3 -0.4 -0.5
 0.4 -0.4 -0.5
 0.5 -0.4 -0.5
 -0.5 -0.3 -0.5
 -0.4 -0.3 -0.5
 -0.3 -0.3 -0.5
 -0.2 -0.3 -0.5
 -0.1 -0.3 -0.5
 0 -0.3 -0.5
 0.1 -0.3 -0.5
 0.2 -0.3 -0.5
 0.3 -0.3 -0.5
 0.4 -0.3 -0.5
 0.5 -0.3 -0.5
 -0.5 -0.2 -0.5
 -0.4 -0.2 -0.5
 -0.3 -0.2 -0.5
 -0.2 -0.2 -0.5
 -0.1 -0.2 -0.5
 0 -0.2 -0.5
 0.1 -0.2 -0.5
 0.2 -0.2 -0.5
 0.3 -0.2 -0.5
 0.4 -0.2 -0.5
 0.5 -0.2 -0.5
 -0.5 -0.1 -0.5
 -0.4 -0.1 -0.5
 -0.3 -0.1 -0.5
 -0.2 -0.1 -0.5
 -0.1 -0.1 -0.5
 0 -0.1 -0.5
 0.1 -0.1 -0.5
 0.2 -0.1 -0.5
 0.3 -0.1 -0.5
 0.4 -0.1 -0.5
 0.5 -0.1 -0.5
 -0.5 0 -0.5
 -0.4 0 -0.5
 -0.3 0 -0.5
 -0.2 0 -0.5
 -0.1 0 -0.5
 0 0 -0.5
 0.1 0 -0.5
 0.2 0 -0.5
 0.3 0 -0.5
 0.4 0 -0.5
 0.5 0 -0.5
 -0.5 0.1 -0.5
 -0.4 0.1 -0.5
 -0.3 0.1 -0.5
 -0.2 0.1 -0.5
 -0.1 0.1 -0.5
 0 0.1 -0.5
 0.1 0.1 -0.5
 0.2 0.1 -0.5
 0.3 0.1 -0.5
 0.4 0.1 -0.5
 0.5 0.1 -0.5
 -0.5 0.2 -0.5
 -0.4 0.2 -0.5
 -0.3 0.2 -0.5
 -0.2 0.2 -0.5
 -0.1 0.2 -0.5
 0 0.2 -0.5
 0.1 0.2 -0.5
 0.2 0.2 -0.5
 0.3 0.2 -0.5
 0.4 0.2 -0.5
 0.5 0.2 -0.5
 -0.5 0.3 -0.5
 -0.4 0.3 -0.5
 -0.3 0.3 -0.5
 -0.2 0.3 -0.5
 -0.1 0.3 -0.5
 0 0.3 -0.5
 0.1 0.3 -0.5
 0.2 0.3 -0.5
 0.3 0.3 -0.5
 0.4 0.3 -0.5
 0.5 0.3 -0.5
 -0.5 0.4 -0.5
 -0.4 0.4 -0.5
 -0.3 0.4 -0.5
 -0.2 0.4 -0.5
 -0.1 0.4 -0.5
 0 0.4 -0.5
 0.1 0.4 -0.5
 0.2 0.4 -0.5
 0.3 0.4 -0.5
 0.4 0.4 -0.5
 0.5 0.4 -0.5
 -0.5 0.5 -0.5
 -0.4 0.5 -0.5
 -0.3 0.5 -0.5
 -0.2 0.5 -0.5
 -0.1 0.5 -0.5
 0 0.5 -0.5
 0.1 0.5 -0.5
 0.2 0.5 -0.5
 0.3 0.5 -0.5
 0.4 0.5 -0.5
 0.5 0.5 -0.5
 -0.5 -0.5 -0.4
 -0.4 -0.5 -0.4
 -0.3 -0.5 -0.4
 -0.2 -0.5 -0.4
 -0.1 -0.5 -0.4
 0 -0.5 -0.4
 0.1 -0.5 -0.4
 0.2 -0.5 -0.4
 0.3 -0.5 -0.4
 0.4 -0.5 -0.4
 0.5 -0.5 -0.4
 -0.5 -0.4 -0.4
 -0.4 -0.4 -0.4
 -0.3 -0.4 -0.4
 -0.2 -0.4 -0.4
 -0.1 -0.4 -0.4
 0 -0.4 -0.4
 0.1 -0.4 -0.4
 0.2 -0.4 -0.4
 0.3 -0.4 -0.4
 0.4 -0.4 -0.4
 0.5 -0.4 -0.4
 -0.5 -0.3 -0.4
 -0.4 -0.3 -0.4
 -0.3 -0.3 -0.4
 -0.2 -0.3 -0.4
 -0.1 -0.3 -0.4
 0 -0.3 -0.4
 0.1 -0.3 -0.4
 0.2 -0.3 -0.4
 0.3 -0.3 -0.4
 0.4 -0.3 -0.4
 0.5 -0.3 -0.4
 -0.5 -0.2 -0.4
 -0.4 -0.2 -0.4
 -0.3 -0.2 -0.4
 -0.2 -0.2 -0.4
 -0.1 -0.2 -0.4
 0 -0.2 -0.4
 0.1 -0.2 -0.4
 0.2 -0.2 -0.4
 0.3 -0.2 -0.4
 0.4 -0.2 -0.4
 0.5 -0.2 -0.4
 -0.5 -0.1 -0.4
 -0.4 -0.1 -0.4
 -0.3 -0.1 -0.4
 -0.2 -0.1 -0.4
 -0.1 -0.1 -0.4
 0 -0.1 -0.4
 0.1 -0.1 -0.4
 0.2 -0.1 -0.4
 0.3 -0.1 -0.4
 0.4 -0.1 -0.4
 0.5 -0.1 -0.4
 -0.5 0 -0.4
 -0.4 0 -0.4
 -0.3 0 -0.4
 -0.2 0 -0.4
 -0.1 0 -0.4
 0 0 -0.4
 0.1 0 -0.4
 0.2 0 -0.4
 0.3 0 -0.4
 0.4 0 -0.4
 0.5 0 -0.4
 -0.5 0.1 -0.4
 -0.4 0.1 -0.4
 -0.3 0.1 -0.4
 -0.2 0.1 -0.4
 -0.1 0.1 -0.4
 0 0.1 -0.4
 0.1 0.1 -0.4
 0.2 0.1 -0.4
 0.3 0.1 -0.4
 0.4 0.1 -0.4
 0.5 0.1 -0.4
 -0.5 0.2 -0.4
 -0.4 0.2 -0.4
 -0.3 0.2 -0.4
 -0.2 0.2 -0.4
 -0.1 0.2 -0.4
 0 0.2 -0.4
 0.1 0.2 -0.4
 0.2 0.2 -0.4
 0.3 0.2 -0.4
 0.4 0.2 -0.4
 0.5 0.2 -0.4
 -0.5 0.3 -0.4
 -0.4 0.3 -0.4
 -0.3 0.3 -0.4
 -0.2 0.3 -0.4
 -0.1 0.3 -0.4
 0 0.3 -0.4
 0.1 0.3 -0.4
 0.2 0.3 -0.4
 0.3 0.3 -0.4
 0.4 0.3 -0.4
 0.5 0.3 -0.4
 -0.5 0.4 -0.4
 -0.4 0.4 -0.4
 -0.3 0.4 -0.4
 -0.2 0.4 -0.4
 -0.1 0.4 -0.4
 0 0.4 -0.4
 0.1 0.4 -0.4
 0.2 0.4 -0.4
 0.3 0.4 -0.4
 0.4 0.4 -0.4
 0.5 0.4 -0.4
 -0.5 0.5 -0.4
 -0.4 0.5 -0.4
 -0.3 0.5 -0.4
 -0.2 0.5 -0.4
 -0.1 0.5 -0.4
 0 0.5 -0.4
 0.1 0.5 -0.4
 0.2 0.5 -0.4
 0.3 0.5 -0.4
 0.4 0.5 -0.4
 0.5 0.5 -0.4
 -0.5 -0.5 -0.3
 -0.4 -0.5 -0.3
 -0.3 -0.5 -0.3
 -0.2 -0.5 -0.3
 -0.1 -0.5 -0.3
 0 -0.5 -0.3
 0.1 -0.5 -0.3
 0.2 -0.5 -0.3
 0.3 -0.5 -0.3
 0.4 -0.5 -0.3
 0.5 -0.5 -0.3
 -0.5 -0.4 -0.3
 -0.4 -0.4 -0.3
 -0.3 -0.4 -0.3
 -0.2 -0.4 -0.3
 -0.1 -0.4 -0.3
 0 -0.4 -0.3
 0.1 -0.4 -0.3
 0.2 -0.4 -0.3
 0.3 -0.4 -0.3
 0.4 -0.4 -0.3
 0.5 -0.4 -0.3
 -0.5 -0.3 -0.3
 -0.4 -0.3 -0.3
 -0.3 -0.3 -0.3
 -0.2 -0.3 -0.3
 -0.1 -0.3 -0.3
 0 -0.3 -0.3
 0.1 -0.3 -0.3
 0.2 -0.3 -0.3
 0.3 -0.3 -0.3
 0.4 -0.3 -0.3
 0.5 -0.3 -0.3
 -0.5 -0.2 -0.3
 -0.4 -0.2 -0.3
 -0.3 -0.2 -0.3
 -0.2 -0.2 -0.3
 -0.1 -0.2 -0.3
 0 -0.2 -0.3
 0.1 -0.2 -0.3
 0.2 -0.2 -0.3
 0.3 -0.2 -0.3
 0.4 -0.2 -0.3
 0.5 -0.2 -0.3
 -0.5 -0.1 -0.3
 -0.4 -0.1 -0.3
 -0.3 -0.1 -0.3
 -0.2 -0.1 -0.3
 -0.1 -0.1 -0.3
 0 -0.1 -0.3
 0.1 -0.1 -0.3
 0.2 -0.1 -0.3
 0.3 -0.1 -0.3
 0.4 -0.1 -0.3
 0.5 -0.1 -0.3
 -0.5 0 -0.3
 -0.4 0 -0.3
 -0.3 0 -0.3
 -0.2 0 -0.3
 -0.1 0 -0.3
 0 0 -0.3
 0.1 0 -0.3
 0.2 0 -0.3
 0.3 0 -0.3
 0.4 0 -0.3
 0.5 0 -0.3
 -0.5 0.1 -0.3
 -0.4 0.1 -0.3
 -0.3 0.1 -0.3
 -0.2 0.1 -0.3
 -0.1 0.1 -0.3
 0 0.1 -0.3
 0.1 0.1 -0.3
 0.2 0.1 -0.3
 0.3 0.1 -0.3
 0.4 0.1 -0.3
 0.5 0.1 -0.3
 -0.5 0.2 -0.3
 -0.4 0.2 -0.3
 -0.3 0.2 -0.3
 -0.2 0.2 -0.3
 -0.1 0.2 -0.3
 0 0.2 -0.3
 0.1 0.2 -0.3
 0.2 0.2 -0.3
 0.3 0.2 -0.3
 0.4 0.2 -0.3
 0.5 0.2 -0.3
 -0.5 0.3 -0.3
 -0.4 0.3 -0.3
 -0.3 0.3 -0.3
 -0.2 0.3 -0.3
 -0.1 0.3 -0.3
 0 0.3 -0.3
 0.1 0.3 -0.3
 0.2 0.3 -0.3
 0.3 0.3 -0.3
 0.4 0.3 -0.3
 0.5 0.3 -0.3
 -0.5 0.4 -0.3
 -0.4 0.4 -0.3
 -0.3 0.4 -0.3
 -0.2 0.4 -0.3
 -0.1 0.4 -0.3
 0 0.4 -0.3
 0.1 0.4 -0.3
 0.2 0.4 -0.3
 0.3 0.4 -0.3
 0.4 0.4 -0.3
 0.5 0.4 -0.3
 -0.5 0.5 -0.3
 -0.4 0.5 -0.3
 -0.3 0.5 -0.3
 -0.2 0.5 -0.3
 -0.1 0.5 -0.3
 0 0.5 -0.3
 0.1 0.5 -0.3
 0.2 0.5 -0.3
 0.3 0.5 -0.3
 0.4 0.5 -0.3
 0.5 0.5 -0.3
 -0.5 -0.5 -0.2
 -0.4 -0.5 -0.2
 -0.3 -0.5 -0.2
 -0.2 -0.5 -0.2
 -0.1 -0.5 -0.2
 0 -0.5 -0.2
 0.1 -0.5 -0.2
 0.2 -0.5 -0.2
 0.3 -0.5 -0.2
 0.4 -0.5 -0.2
 0.5 -0.5 -0.2
 -0.5 -0.4 -0.2
 -0.4 -0.4 -0.2
 -0.3 -0.4 -0.2
 -0.2 -0.4 -0.2
 -0.1 -0.4 -0.2
 0 -0.4 -0.2
 0.1 -0.4 -0.2
 0.2 -0.4 -0.2
 0.3 -0.4 -0.2
 0.4 -0.4 -0.2
 0.5 -0.4 -0.2
 -0.5 -0.3 -0.2
 -0.4 -0.3 -0.2
 -0.3 -0.3 -0.2
 -0.2 -0.3 -0.2
 -0.1 -0.3 -0.2
 0 -0.3 -0.2
 0.1 -0.3 -0.2
 0.2 -0.3 -0.2
 0.3 -0.3 -0.2
 0.4 -0.3 -0.2
 0.5 -0.3 -0.2
 -0.5 -0.2 -0.2
 -0.4 -0.2 -0.2
 -0.3 -0.2 -0.2
 -0.2 -0.2 -0.2
 -0.1 -0.2 -0.2
 0 -0.2 -0.2
 0.1 -0.2 -0.2
 0.2 -0.2 -0.2
 0.3 -0.2 -0.2
 0.4 -0.2 -0.2
 0.5 -0.2 -0.2
 -0.5 -0.1 -0.2
 -0.4 -0.1 -0.2
 -0.3 -0.1 -0.2
 -0.2 -0.1 -0.2
 -0.1 -0.1 -0.2
 0 -0.1 -0.2
 0.1 -0.1 -0.2
 0.2 -0.1 -0.2
 0.3 -0.1 -0.2
 0.4 -0.1 -0.2
 0.5 -0.1 -0.2
 -0.5 0 -0.2
 -0.4 0 -0.2
 -0.3 0 -0.2
 -0.2 0 -0.2
 -0.1 0 -0.2
 0 0 -0.2
 0.1 0 -0.2
 0.2 0 -0.2
 0.3 0 -0.2
 0.4 0 -0.2
 0.5 0 -0.2
 -0.5 0.1 -0.2
 -0.4 0.1 -0.2
 -0.3 0.1 -0.2
 -0.2 0.1 -0.2
 -0.1 0.1 -0.2
 0 0.1 -0.2
 0.1 0.1 -0.2
 0.2 0.1 -0.2
 0.3 0.1 -0.2
 0.4 0.1 -0.2
 0.5 0.1 -0.2
 -0.5 0.2 -0.2
 -0.4 0.2 -0.2
 -0.3 0.2 -0.2
 -0.2 0.2 -0.2
 -0.1 0.2 -0.2
 0 0.2 -0.2
 0.1 0.2 -0.2
 0.2 0.2 -0.2
 0.3 0.2 -0.2
 0.4 0.2 -0.2
 0.5 0.2 -0.2
 -0.5 0.3 -0.2
 -0.4 0.3 -0.2
 -0.3 0.3 -0.2
 -0.2 0.3 -0.2
 -0.1 0.3 -0.2
 0 0.3 -0.2
 0.1 0.3 -0.2
 0.2 0.3 -0.2
 0.3 0.3 -0.2
 0.4 0.3 -0.2
 0.5 0.3 -0.2
 -0.5 0.4 -0.2
 -0.4 0.4 -0.2
 -0.3 0.4 -0.2
 -0.2 0.4 -0.2
 -0.1 0.4 -0.2
 0 0.4 -0.2
 0.1 0.4 -0.2
 0.2 0.4 -0.2
 0.3 0.4 -0.2
 0.4 0.4 -0.2
 0.5 0.4 -0.2
 -0.5 0.5 -0.2
 -0.4 0.5 -0.2
 -0.3 0.5 -0.2
 -0.2 0.5 -0.2
 -0.1 0.5 -0.2
 0 0.5 -0.2
 0.1 0.5 -0.2
 0.2 0.5 -0.2
 0.3 0.5 -0.2
 0.4 0.5 -0.2
 0.5 0.5 -0.2
 -0.5 -0.5 -0.1
 -0.4 -0.5 -0.1
 -0.3 -0.5 -0.1
 -0.2 -0.5 -0.1
 -0.1 -0.5 -0.1
 0 -0.5 -0.1
 0.1 -0.5 -0.1
 0.2 -0.5 -0.1
 0.3 -0.5 -0.1
 0.4 -0.5 -0.1
 0.5 -0.5 -0.1
 -0.5 -0.4 -0.1
 -0.4 -0.4 -0.1
 -0.3 -0.4 -0.1
 -0.2 -0.4 -0.1
 -0.1 -0.4 -0.1
 0 -0.4 -0.1
 0.1 -0.4 -0.1
 0.2 -0.4 -0.1
 0.3 -0.4 -0.1
 0.4 -0.4 -0.1
 0.5 -0.4 -0.1
 -0.5 -0.3 -0.1
 -0.4 -0.3 -0.1
 -0.3 -0.3 -0.1
 -0.2 -0.3 -0.1
 -0.1 -0.3 -0.1
 0 -0.3 -0.1
 0.1 -0.3 -0.1
 0.2 -0.3 -0.1
 0.3 -0.3 -0.1
 0.4 -0.3 -0.1
 0.5 -0.3 -0.1
 -0.5 -0.2 -0.1
 -0.4 -0.2 -0.1
 -0.3 -0.2 -0.1
 -0.2 -0.2 -0.1
 -0.1 -0.2 -0.1
 0 -0.2 -0.1
 0.1 -0.2 -0.1
 0.2 -0.2 -0.1
 0.3 -0.2 -0.1
 0.4 -0.2 -0.1
 0.5 -0.2 -0.1
 -0.5 -0.1 -0.1
 -0.4 -0.1 -0.1
 -0.3 -0.1 -0.1
 -0.2 -0.1 -0.1
 -0.1 -0.1 -0.1
 0 -0.1 -0.1
 0.1 -0.1 -0.1
 0.2 -0.1 -0.1
 0.3 -0.1 -0.1
 0.4 -0.1 -0.1
 0.5 -0.1 -0.1
 -0.5 0 -0.1
 -0.4 0 -0.1
 -0.3 0 -0.1
 -0.2 0 -0.1
 -0.1 0 -0.1
 0 0 -0.1
 0.1 0 -0.1
 0.2 0 -0.1
 0.3 0 -0.1
 0.4 0 -0.1
 0.5 0 -0.1
 -0.5 0.1 -0.1
 -0.4 0.1 -0.1
 -0.3 0.1 -0.1
 -0.2 0.1 -0.1
 -0.1 0.1 -0.1
 0 0.1 -0.1
 0.1 0.1 -0.1
 0.2 0.1 -0.1
 0.3 0.1 -0.1
 0.4 0.1 -0.1
 0.5 0.1 -0.1
 -0.5 0.2 -0.1
 -0.4 0.2 -0.1
 -0.3 0.2 -0.1
 -0.2 0.2 -0.1
 -0.1 0.2 -0.1
 0 0.2 -0.1
 0.1 0.2 -0.1
 0.2 0.2 -0.1
 0.3 0.2 -0.1
 0.4 0.2 -0.1
 0.5 0.2 -0.1
 -0.5 0.3 -0.1
 -0.4 0.3 -0.1
 -0.3 0.3 -0.1
 -0.2 0.3 -0.1
 -0.1 0.3 -0.1
 0 0.3 -0.1
 0.1 0.3 -0.1
 0.2 0.3 -0.1
 0.3 0.3 -0.1
 0.4 0.3 -0.1
 0.5 0.3 -0.1
 -0.5 0.4 -0.1
 -0.4 0.4 -0.1
 -0.3 0.4 -0.1
 -0.2 0.4 -0.1
 -0.1 0.4 -0.1
 0 0.4 -0.1
 0.1 0.4 -0.1
 0.2 0.4 -0.1
 0.3 0.4 -0.1
 0.4 0.4 -0.1
 0.5 0.4 -0.1
 -0.5 0.5 -0.1
 -0.4 0.5 -0.1
 -0.3 0.5 -0.1
 -0.2 0.5 -0.1
 -0.1 0.5 -0.1
 0 0.5 -0.1
 0.1 0.5 -0.1
 0.2 0.5 -0.1
 0.3 0.5 -0.1
 0.4 0.5 -0.1
 0.5 0.5 -0.1
 -0.5 -0.5 0
 -0.4 -0.5 0
 -0.3 -0.5 0
 -0.2 -0.5 0
 -0.1 -0.5 0
 0 -0.5 0
 0.1 -0.5 0
 0.2 -0.5 0
 0.3 -0.5 0
 0.4 -0.5 0
 0.5 -0.5 0
 -0.5 -0.4 0
 -0.4 -0.4 0
 -0.3 -0.4 0
 -0.2 -0.4 0
 -0.1 -0.4 0
 0 -0.4 0
 0.1 -0.4 0
 0.2 -0.4 0
 0.3 -0.4 0
 0.4 -0.4 0
 0.5 -0.4 0
 -0.5 -0.3 0
 -0.4 -0.3 0
 -0.3 -0.3 0
 -0.2 -0.3 0
 -0.1 -0.3 0
 0 -0.3 0
 0.1 -0.3 0
 0.2 -0.3 0
 0.3 -0.3 0
 0.4 -0.3 0
 0.5 -0.3 0
 -0.5 -0.2 0
 -0.4 -0.2 0
 -0.3 -0.2 0
 -0.2 -0.2 0
 -0.1 -0.2 0
 0 -0.2 0
 0.1 -0.2 0
 0.2 -0.2 0
 0.3 -0.2 0
 0.4 -0.2 0
 0.5 -0.2 0
 -0.5 -0.1 0
 -0.4 -0.1 0
 -0.3 -0.1 0
 -0.2 -0.1 0
 -0.1 -0.1 0
 0 -0.1 0
 0.1 -0.1 0
 0.2 -0.1 0
 0.3 -0.1 0
 0.4 -0.1 0
 0.5 -0.1 0
 -0.5 0 0
 -0.4 0 0
 -0.3 0 0
 -0.2 0 0
 -0.1 0 0
 0 0 0
 0.1 0 0
 0.2 0 0
 0.3 0 0
 0.4 0 0
 0.5 0 0
 -0.5 0.1 0
 -0.4 0.1 0
 -0.3 0.1 0
 -0.2 0.1 0
 -0.1 0.1 0
 0 0.1 0
 0.1 0.1 0
 0.2 0.1 0
 0.3 0.1 0
 0.4 0.1 0
 0.5 0.1 0
 -0.5 0.2 0
 -0.4 0.2 0
 -0.3 0.2 0
 -0.2 0.2 0
 -0.1 0.2 0
 0 0.2 0
 0.1 0.2 0
 0.2 0.2 0
 0.3 0.2 0
 0.4 0.2 0
 0.5 0.2 0
 -0.5 0.3 0
 -0.4 0.3 0
[...]
CELL_DATA 1000
FIELD DOMAIN 2
VOL_DIV_q 1 1000 FLOAT 
 -22814.6
 -23785.4
 -24243.9
 -24346.7
 -25109.8
 -25493.3
 -23978.7
 -24189.2
 -24321.6
 -22801.4
 -22594.1
 -24326.2
 -25162.1
 -26745.5
 -27988.9
 -28130.7
 -26774.6
 -25744
 -23982.8
 -22679.6
 -22650.6
 -25468.6
 -27126.3
 -29119.1
 -31490.5
 -31086.7
 -29268
 -27104.1
 -25597.1
 -22977.3
 -23239.8
 -26332.6
 -28313.8
 -31855.2
 -34361
 -34846.7
 -31261.5
 -29459
 -26534.7
 -22917.1
 -24075
 -27127
 -30891.9
 -34361.5
 -38159.2
 -37565.3
 -35276
 -30935.3
 -27531.9
 -23738.9
 -23746
 -28310.4
 -31283.9
 -34935.9
 -38259.2
 -38549.3
 -35285
 -31022
 -27832.8
 -24636.7
 -23771
 -27256.3
 -30495.1
 -32823.3
 -35769.5
 -36084.8
 -32625.3
 -29792
 -27986.2
 -23778.8
 -23595.4
 -26039.8
 -28660.9
 -31143
 -32519.2
 -32313.5
 -31178.3
 -28768.5
 -26409
 -24077.1
 -24998.9
 -26378.2
 -28268.3
 -29038.4
 -30692.8
 -31389.5
 -28588
 -27470.5
 -26202.8
 -24331.7
 -26229
 -27065.3
 -27920.2
 -28035.7
 -29084.7
 -29572.2
 -27876.2
 -27808.2
 -27596.9
 -25622.8
 -23639.3
 -24956.8
 -27023.6
 -28102.9
 -29043.4
 -29350.9
 -27784
 -27076.7
 -24970.6
 -23502.3
 -24353.6
 -28887
 -31997.5
 -36034.7
 -39428.7
 -39566.4
 -35985.6
 -32121.2
 -28112.6
 -24522.9
 -24893.5
 -31313.9
 -37862.3
 -43924
 -48785.9
 -50500.6
 -43658.9
 -37106.1
 -32452.7
 -25111.1
 -26318.1
 -35120
 -44744.2
 -50987
 -60702.9
 -59375.6
 -51977.7
 -42717.7
 -35674.5
 -26483.4
 -27268.2
 -39201.8
 -49475.9
 -59207.2
 -70647.5
 -70300.4
 -62330.3
 -49057.1
 -38844.9
 -27721.4
 -27642.3
 -40184.6
 -50581.7
 -61010.2
 -70520
 -71936.1
 -60722.3
 -49757.1
 -39749.9
 -28281.1
 -27253.4
 -36886.1
 -44497.4
 -53373.6
 -62310
 -62388.4
 -53621
 -45533.4
 -36682.6
 -27825.6
 -26931
 -34126.4
 -40188.2
 -46667.6
 -51801.1
 -54225.2
 -46757.9
 -40900.1
 -33878.4
 -27682.1
 -27149.4
 -31910.4
 -36672.5
 -40290.7
 -44471.1
 -43710.5
 -40279.4
 -35682.3
 -31459.2
 -27032.5
 -28145.3
 -29343
 -30846.2
 -33548.9
 -34214.2
 -34155.5
 -33685.5
 -32555.9
 -30136
 -27712.9
 -25379.6
 -26760.2
 -29439.1
 -31994.7
 -33383.2
 -33582.5
 -31255.9
 -29603.3
 -27006.5
 -25094.3
 -25803.3
 -32393.5
 -38512.9
 -45278.1
 -51326.9
 -51726.4
 -44573.3
 -38767
 -32478.6
 -26410.1
 -28054.7
 -38263.1
 -49148
 -58645.5
 -69851.3
 -66911.2
 -57723.2
 -49626.5
 -38233.3
 -28335.8
 -29009.8
 -43587.6
 -58393.2
 -70941.5
 -84878.7
 -86786.7
 -71267
 -59187.4
 -44731.2
 -29825.5
 -32110.8
 -50417.5
 -68584.4
 -84658.1
 -100375
 -104538
 -83778.2
 -67621.9
 -50348
 -31907.6
 -32664.8
 -52031.8
 -69289.5
 -86713.7
 -105173
 -105155
 -87835.9
 -70413.8
 -51574.9
 -33616.2
 -32688.2
 -44921.8
 -59923.5
 -75977.4
 -90659.9
 -89687.1
 -73409
 -59837.9
 -44529.9
 -30959.3
 -29427.3
 -41924.4
 -51787.7
 -63840.5
 -74177.7
 -72513.7
 -64394.8
 -53071.1
 -41197.4
 -30392.5
 -29405
 -37382.9
 -44215.8
 -50456.8
 -58150.2
 -58818
 -51850.7
 -44161.8
 -37033.3
 -28549.5
 -28638.5
 -32010.6
 -34361.3
 -36907.2
 -39125
 -39349.1
 -37366.1
 -34899.6
 -31967.8
 -28913.4
 -25852.7
 -29146.9
 -32515
 -35012.2
 -37846.7
 -38043.6
 -34912.1
 -32775.5
 -29028.2
 -25806.1
 -27916.1
 -37285.8
 -46463.5
 -55407.6
 -64673.9
 -62852.5
 -53989.5
 -45571
 -37552.1
 -28930.8
 -30147.4
 -45320.9
 -61096.8
 -75776.9
 -87407.4
 -86518.3
 -72633.6
 -59830.8
 -45510.2
 -30926
 -34800.8
 -54255.8
 -74106.5
 -91752.7
 -109238
 -109811
 -91606.1
 -73127.2
 -55650
 -34095.7
 -36591.8
 -62607.2
 -86626.5
 -111781
 -134933
 -134757
 -109687
 -88491.8
 -62394.2
 -35694.3
 -36267.6
 -64264.1
 -89903.5
 -110419
 -139351
 -139758
 -113115
 -89568.4
 -64397.5
 -37914.4
 -35581.5
 -55465.7
 -78436.4
 -97148.2
 -115553
 -118068
 -97491.9
 -79047.4
 -55528.4
 -35468.3
 -33451.7
 -49971.8
 -63758.2
 -80897.7
 -95996.4
 -95028.2
 -80074.6
 -65110.1
 -50650.3
 -34051.9
 -31511.7
 -42256.5
 -52182.3
 -61792.2
 -71089.2
 -70572.2
 -63216.4
 -51939.6
 -42247.3
 -31484.5
 -30682
 -34320.1
 -37658.4
 -41689.3
 -45569.3
 -44044.2
 -41524.5
 -38742.7
 -34056.8
 -30027
 -27562.4
 -31244.7
 -34932.5
 -39347.6
 -43695.5
 -42631.4
 -38974.1
 -35023.8
 -31604.3
 -26684.8
 -30162.4
 -42113.9
 -54221.6
 -67462
 -76234.1
 -78088.3
 -65745.8
 -55147.6
 -42380.2
 -29867.8
 -33523
 -53765.2
 -72043.4
 -91089
 -108672
 -109157
 -90358.4
 -73757.5
 -52752.2
 -34874.9
 -38761.6
 -67069.4
 -91236.2
 -115455
 -137025
 -140074
 -117756
 -90859.7
 -64607.5
 -38748.2
 -41027.2
 -77574.2
 -107929
 -142306
 -173510
 -168856
 -139422
 -108981
 -77833.7
 -42214.4
 -42577.9
 -78123.4
 -110351
 -144245
 -171339
 -176162
 -141064
 -111905
 -77053.7
 -42121.2
 -40113.7
 -67077.3
 -97602.8
 -120840
 -144658
 -146786
 -121065
 -94597.4
 -69034
 -39686.5
 -37237.2
 -58490.8
 -79370.3
 -102156
 -119025
 -121149
 -100169
 -78078.3
 -57929.4
 -36912.6
 -33053.1
 -47247.5
 -59908.9
 -74582.6
 -91067.8
 -88794
 -74009.1
 -62905.5
 -48266.9
 -33593.8
 -31791.6
 -36539.8
 -41350
 -46358.7
 -50590.3
 -51146.3
 -46162.6
 -41259
 -37025.9
 -31450
 -27669
 -33083.9
 -37209.4
 -40569.3
 -44442.7
 -45558.6
 -40408.1
 -36964.5
 -31934.4
 -28192.4
 -32067.6
 -45148.4
 -56178.4
 -68132.4
 -80932.8
 -79930.3
 -68948.2
 -54831.5
 -44938.2
 -31548.6
 -35162.4
 -55748.8
 -75627.2
 -92619.1
 -114826
 -113869
 -95934.9
 -75392.7
 -54569.1
 -35794.5
 -39216.9
 -68128.9
 -95088.5
 -121887
 -145270
 -150178
 -122526
 -92898.6
 -65350.6
 -39956.6
 -44084.8
 -76793.8
 -117144
 -146645
 -176668
 -177187
 -147434
 -114394
 -79219.4
 -44046.6
 -44266.4
 -80699.7
 -114086
 -151869
 -182325
 -184005
 -147206
 -114961
 -80686.1
 -44556.9
 -40702.2
 -69730.4
 -100277
 -127612
 -154470
 -159250
 -127225
 -96508.7
 -72006
 -41846.5
 -38844.1
 -61105.1
 -83922.7
 -103032
 -124081
 -121358
 -103814
 -82596.6
 -60530.1
 -38604.4
 -35424.6
 -48586
 -62971.8
 -76566.1
 -88957.4
 -90974.7
 -76696.2
 -63906.5
 -50330.5
 -35024.1
 -32944.3
 -38181.4
 -42619.4
 -48070.7
 -53156.2
 -51896.5
 -48253.9
 -43263.9
 -37623.6
 -32542.7
 -28836.8
 -32009.4
 -36754.9
 -38837.8
 -43648.8
 -42184.5
 -38920.8
 -35659.8
 -31947.6
 -28190
 -31339.5
 -42104.3
 -52515.7
 -61330.9
 -70930.6
 -71315.7
 -62289
 -53195.8
 -41793.9
 -31278.3
 -34858.6
 -50003.9
 -69580.4
 -84021.5
 -98791.1
 -99454.8
 -82686.2
 -69697.4
 -51247.8
 -35188.4
 -37619.5
 -62508.5
 -84845.1
 -105724
 -127577
 -126398
 -105107
 -80473.9
 -61543.9
 -38251.7
 -41776.1
 -70636.1
 -100301
 -126834
 -154240
 -149856
 -126723
 -99760.9
 -71461.4
 -40819.4
 -43035.2
 -72231.5
 -101612
 -134122
 -152864
 -158374
 -130994
 -100659
 -72522.5
 -42908.9
 -39891.9
 -62513.9
 -87686.9
 -108083
 -131743
 -134453
 -113403
 -89306.5
 -64951.8
 -39552.4
 -37229.3
 -56401.9
 -73692.7
 -90058.5
 -107345
 -111867
 -91073.8
 -73929.1
 -54155.9
 -36163.4
 -34003.4
 -47766
 -57668.2
 -70697.7
 -79203.4
 -80936.8
 -68720.9
 -57781.2
 -45766
 -34866.8
 -32727.3
 -37219.8
 -42728
 -45801.9
 -49516.7
 -50263.8
 -46076.4
 -40942.7
 -37432.3
 -32604.8
 -29108.3
 -31810.5
 -35137.9
 -38336.5
 -40811.8
 -39891.4
 -37517.8
 -35272.3
 -32603.9
 -29440.4
 -32155.9
 -39085.4
 -47461.9
 -55576
 -62293
 -63434.1
 -55284.6
 -47249.7
 -39103.9
 -30674.5
 -33592.6
 -46400.4
 -60472.6
 -70236.5
 -84137.5
 -82390.3
 -73061.5
 -59224.7
 -45902.4
 -34103.8
 -35307.3
 -53921.3
 -72506.8
 -87256.5
 -104932
 -103754
 -89109.8
 -72557.6
 -53607.2
 -35717.8
 -38930.1
 -61729.6
 -84356.2
 -105396
 -127521
 -127439
 -105297
 -80793.9
 -61895.8
 -38847.1
 -39781
 -61865.7
 -85585.7
 -104833
 -130810
 -125573
 -108098
 -85895
 -63673.3
 -39425
 -37548.2
 -56418.7
 -75259.3
 -94449.1
 -108965
 -109236
 -91186.2
 -74890.5
 -56224.4
 -37675.4
 -36437.4
 -49647.8
 -63483.1
 -78754.4
 -92141.1
 -92980
 -75987
 -63823.4
 -49543.6
 -36339.1
 -35949
 -43641.5
 -53909.8
 -60644.4
 -71798.5
 -69035
 -60109.5
 -52259.3
 -44631
 -34923.7
 -33534.2
 -37173.8
 -39986.3
 -43969.5
 -47251.7
 -46564.7
 -43608.3
 -40536.8
 -36982.7
 -32727.9
 -31092.9
 -32895.6
 -34827.9
 -35412.4
 -38293.9
 -38076.2
 -36101.4
 -34553.2
 -33162
 -30442
 -31313.8
 -36909.8
 -41607.4
 -46910.8
 -52215.7
 -53120.4
 -46707.1
 -41952.7
 -37402.8
 -31235.7
 -32476.1
 -41687.6
 -48960.3
 -58274.9
 -66684.1
 -65658.7
 -57703.2
 -49337.3
 -41439
 -32797.2
 -34478.6
 -46287.4
 -57044.8
 -67618.6
 -80719.6
 -80371
 -69040.9
 -57812.7
 -45552.7
 -35132.6
 -35657.8
 -52075.7
 -65464
 -79347.6
 -95807.6
 -94430.5
 -80157
 -67201
 -50999
 -35775
 -36083.8
 -50532.6
 -67265.3
 -82512.1
 -94742.8
 -96884
 -80661
 -67902
 -50796.9
 -37381.7
 -35719.4
 -48359.9
 -59529.1
 -71058.3
 -80886.9
 -82926.2
 -72322.5
 -59320
 -47757.7
 -35931.6
 -35479.7
 -44890.1
 -53332.5
 -61269.8
 -69497.8
 -69813.8
 -61337.5
 -53795.2
 -43455.7
 -35022.6
 -34082.8
 -40506
 -45158
 -52875.6
 -57792.2
 -56846.2
 -51289.7
 -45601.1
 -41248.5
 -35176.6
 -34057
 -36340.7
 -38996.3
 -40222.4
 -42890.9
 -42824.4
 -41593.4
 -39252
 -36685.3
 -34431.5
 -31301.8
 -32833.8
 -33852.7
 -34330
 -35336.7
 -34020
 -35070.7
 -34306.4
 -32902
 -31148.3
 -31256.6
 -34633.4
 -36696.5
 -38026
 -41247.8
 -40162.1
 -39787.6
 -35795.1
 -34736.3
 -31717.9
 -32849.7
 -36312.1
 -38371.4
 -41259.2
 -45439.2
 -45074
 -41424.7
 -38257.7
 -36077.9
 -32665.1
 -33162.3
 -37848.9
 -41136.1
 -46612.4
 -49486.8
 -50323.5
 -47067.8
 -42596.7
 -37095.2
 -33573.5
 -34069.1
 -39286.8
 -45290.5
 -49706.2
 -55185
 -54575.3
 -48607
 -44101.5
 -40422.5
 -33782.5
 -34223.2
 -39622
 -44830.5
 -50940.2
 -55765.7
 -55592.7
 -50483.8
 -45316.4
 -40639.3
 -34434.6
 -33397.4
 -38526.4
 -43128.4
 -46891.2
 -51660.1
 -51469.1
 -47184.9
 -41502.1
 -38666.7
 -34284.4
 -33785.5
 -37753.5
 -41867.6
 -43540.8
 -47036.6
 -47998.2
 -44813
 -41805.5
 -38215.8
 -33432.2
 -34151.6
 -36005
 -39597.4
 -41830.5
 -43193.7
 -44574.5
 -40443.8
 -38459.3
 -36418.1
 -33968
 -35584.5
 -36769.8
 -36966.7
 -38009.9
 -39484.4
 -39071.3
 -37563.4
 -37473.2
 -36778.2
 -35676.8

Vol_HEAT_Q 1 1000 FLOAT 
 -22.8146
 -23.7854
 -24.2439
 -24.3467
 -25.1098
 -25.4933
 -23.9787
 -24.1892
 -24.3216
 -22.8014
 -22.5941
 -24.3262
 -25.1621
 -26.7455
 -27.9889
 -28.1307
 -26.7746
 -25.744
 -23.9828
 -22.6796
 -22.6506
 -25.4686
 -27.1263
 -29.1191
 -31.4905
 -31.0867
 -29.268
 -27.1041
 -25.5971
 -22.9773
 -23.2398
 -26.3326
 -28.3138
 -31.8552
 -34.361
 -34.8467
 -31.2615
 -29.459
 -26.5347
 -22.9171
 -24.075
 -27.127
 -30.8919
 -34.3615
 -38.1592
 -37.5653
 -35.276
 -30.9353
 -27.5319
 -23.7389
 -23.746
 -28.3104
 -31.2839
 -34.9359
 -38.2592
 -38.5493
 -35.285
 -31.022
 -27.8328
 -24.6367
 -23.771
 -27.2563
 -30.4951
 -32.8233
 -35.7695
 -36.0848
 -32.6253
 -29.792
 -27.9862
 -23.7788
 -23.5954
 -26.0398
 -28.6609
 -31.143
 -32.5192
 -32.3135
 -31.1783
 -28.7685
 -26.409
 -24.0771
 -24.9989
 -26.3782
 -28.2683
 -29.0384
 -30.6928
 -31.3895
 -28.588
 -27.4705
 -26.2028
 -24.3317
 -26.229
 -27.0653
 -27.9202
 -28.0357
 -29.0847
 -29.5722
 -27.8762
 -27.8082
 -27.5969
 -25.6228
 -23.6393
 -24.9568
 -27.0236
 -28.1029
 -29.0434
 -29.3509
 -27.784
 -27.0767
 -24.9706
 -23.5023
 -24.3536
 -28.887
 -31.9975
 -36.0347
 -39.4287
 -39.5664
 -35.9856
 -32.1212
 -28.1126
 -24.5229
 -24.8935
 -31.3139
 -37.8623
 -43.924
 -48.7859
 -50.5006
 -43.6589
 -37.1061
 -32.4527
 -25.1111
 -26.3181
 -35.12
 -44.7442
 -50.987
 -60.7029
 -59.3756
 -51.9777
 -42.7177
 -35.6745
 -26.4834
 -27.2682
 -39.2018
 -49.4759
 -59.2072
 -70.6475
 -70.3004
 -62.3303
 -49.0571
 -38.8449
 -27.7214
 -27.6423
 -40.1846
 -50.5817
 -61.0102
 -70.52
 -71.9361
 -60.7223
 -49.7571
 -39.7499
 -28.2811
 -27.2534
 -36.8861
 -44.4974
 -53.3736
 -62.31
 -62.3884
 -53.621
 -45.5334
 -36.6826
 -27.8256
 -26.931
 -34.1264
 -40.1882
 -46.6676
 -51.8011
 -54.2252
 -46.7579
 -40.9001
 -33.8784
 -27.6821
 -27.1494
 -31.9104
 -36.6725
 -40.2907
 -44.4711
 -43.7105
 -40.2794
 -35.6823
 -31.4592
 -27.0325
 -28.1453
 -29.343
 -30.8462
 -33.5489
 -34.2142
 -34.1555
 -33.6855
 -32.5559
 -30.136
 -27.7129
 -25.3796
 -26.7602
 -29.4391
 -31.9947
 -33.3832
 -33.5825
 -31.2559
 -29.6033
 -27.0065
 -25.0943
 -25.8033
 -32.3935
 -38.5129
 -45.2781
 -51.3269
 -51.7264
 -44.5733
 -38.767
 -32.4786
 -26.4101
 -28.0547
 -38.2631
 -49.148
 -58.6455
 -69.8513
 -66.9112
 -57.7232
 -49.6265
 -38.2333
 -28.3358
 -29.0098
 -43.5876
 -58.3932
 -70.9415
 -84.8787
 -86.7867
 -71.267
 -59.1874
 -44.7312
 -29.8255
 -32.1108
 -50.4175
 -68.5844
 -84.6581
 -100.375
 -104.538
 -83.7782
 -67.6219
 -50.348
 -31.9076
 -32.6648
 -52.0318
 -69.2895
 -86.7137
 -105.173
 -105.155
 -87.8359
 -70.4138
 -51.5749
 -33.6162
 -32.6882
 -44.9218
 -59.9235
 -75.9774
 -90.6599
 -89.6871
 -73.409
 -59.8379
 -44.5299
 -30.9593
 -29.4273
 -41.9244
 -51.7877
 -63.8405
 -74.1777
 -72.5137
 -64.3948
 -53.0711
 -41.1974
 -30.3925
 -29.405
 -37.3829
 -44.2158
 -50.4568
 -58.1502
 -58.818
 -51.8507
 -44.1618
 -37.0333
 -28.5495
 -28.6385
 -32.0106
 -34.3613
 -36.9072
 -39.125
 -39.3491
 -37.3661
 -34.8996
 -31.9678
 -28.9134
 -25.8527
 -29.1469
 -32.515
 -35.0122
 -37.8467
 -38.0436
 -34.9121
 -32.7755
 -29.0282
 -25.8061
 -27.9161
 -37.2858
 -46.4635
 -55.4076
 -64.6739
 -62.8525
 -53.9895
 -45.571
 -37.5521
 -28.9308
 -30.1474
 -45.3209
 -61.0968
 -75.7769
 -87.4074
 -86.5183
 -72.6336
 -59.8308
 -45.5102
 -30.926
 -34.8008
 -54.2558
 -74.1065
 -91.7527
 -109.238
 -109.811
 -91.6061
 -73.1272
 -55.65
 -34.0957
 -36.5918
 -62.6072
 -86.6265
 -111.781
 -134.933
 -134.757
 -109.687
 -88.4918
 -62.3942
 -35.6943
 -36.2676
 -64.2641
 -89.9035
 -110.419
 -139.351
 -139.758
 -113.115
 -89.5684
 -64.3975
 -37.9144
 -35.5815
 -55.4657
 -78.4364
 -97.1482
 -115.553
 -118.068
 -97.4919
 -79.0474
 -55.5284
 -35.4683
 -33.4517
 -49.9718
 -63.7582
 -80.8977
 -95.9964
 -95.0282
 -80.0746
 -65.1101
 -50.6503
 -34.0519
 -31.5117
 -42.2565
 -52.1823
 -61.7922
 -71.0892
 -70.5722
 -63.2164
 -51.9396
 -42.2473
 -31.4845
 -30.682
 -34.3201
 -37.6584
 -41.6893
 -45.5693
 -44.0442
 -41.5245
 -38.7427
 -34.0568
 -30.027
 -27.5624
 -31.2447
 -34.9325
 -39.3476
 -43.6955
 -42.6314
 -38.9741
 -35.0238
 -31.6043
 -26.6848
 -30.1624
 -42.1139
 -54.2216
 -67.462
 -76.2341
 -78.0883
 -65.7458
 -55.1476
 -42.3802
 -29.8678
 -33.523
 -53.7652
 -72.0434
 -91.089
 -108.672
 -109.157
 -90.3584
 -73.7575
 -52.7522
 -34.8749
 -38.7616
 -67.0694
 -91.2362
 -115.455
 -137.025
 -140.074
 -117.756
 -90.8597
 -64.6075
 -38.7482
 -41.0272
 -77.5742
 -107.929
 -142.306
 -173.51
 -168.856
 -139.422
 -108.981
 -77.8337
 -42.2144
 -42.5779
 -78.1234
 -110.351
 -144.245
 -171.339
 -176.162
 -141.064
 -111.905
 -77.0537
 -42.1212
 -40.1137
 -67.0773
 -97.6028
 -120.84
 -144.658
 -146.786
 -121.065
 -94.5974
 -69.034
 -39.6865
 -37.2372
 -58.4908
 -79.3703
 -102.156
 -119.025
 -121.149
 -100.169
 -78.0783
 -57.9294
 -36.9126
 -33.0531
 -47.2475
 -59.9089
 -74.5826
 -91.0678
 -88.794
 -74.0091
 -62.9055
 -48.2669
 -33.5938
 -31.7916
 -36.5398
 -41.35
 -46.3587
 -50.5903
 -51.1463
 -46.1626
 -41.259
 -37.0259
 -31.45
 -27.669
 -33.0839
 -37.2094
 -40.5693
 -44.4427
 -45.5586
 -40.4081
 -36.9645
 -31.9344
 -28.1924
 -32.0676
 -45.1484
 -56.1784
 -68.1324
 -80.9328
 -79.9303
 -68.9482
 -54.8315
 -44.9382
 -31.5486
 -35.1624
 -55.7488
 -75.6272
 -92.6191
 -114.826
 -113.869
 -95.9349
 -75.3927
 -54.5691
 -35.7945
 -39.2169
 -68.1289
 -95.0885
 -121.887
 -145.27
 -150.178
 -122.526
 -92.8986
 -65.3506
 -39.9566
 -44.0848
 -76.7938
 -117.144
 -146.645
 -176.668
 -177.187
 -147.434
 -114.394
 -79.2194
 -44.0466
 -44.2664
 -80.6997
 -114.086
 -151.869
 -182.325
 -184.005
 -147.206
 -114.961
 -80.6861
 -44.5569
 -40.7022
 -69.7304
 -100.277
 -127.612
 -154.47
 -159.25
 -127.225
 -96.5087
 -72.006
 -41.8465
 -38.8441
 -61.1051
 -83.9227
 -103.032
 -124.081
 -121.358
 -103.814
 -82.5966
 -60.5301
 -38.6044
 -35.4246
 -48.586
 -62.9718
 -76.5661
 -88.9574
 -90.9747
 -76.6962
 -63.9065
 -50.3305
 -35.0241
 -32.9443
 -38.1814
 -42.6194
 -48.0707
 -53.1562
 -51.8965
 -48.2539
 -43.2639
 -37.6236
 -32.5427
 -28.8368
 -32.0094
 -36.7549
 -38.8378
 -43.6488
 -42.1845
 -38.9208
 -35.6598
 -31.9476
 -28.19
 -31.3395
 -42.1043
 -52.5157
 -61.3309
 -70.9306
 -71.3157
 -62.289
 -53.1958
 -41.7939
 -31.2783
 -34.8586
 -50.0039
 -69.5804
 -84.0215
 -98.7911
 -99.4548
 -82.6862
 -69.6974
 -51.2478
 -35.1884
 -37.6195
 -62.5085
 -84.8451
 -105.724
 -127.577
 -126.398
 -105.107
 -80.4739
 -61.5439
 -38.2517
 -41.7761
 -70.6361
 -100.301
 -126.834
 -154.24
 -149.856
 -126.723
 -99.7609
 -71.4614
 -40.8194
 -43.0352
 -72.2315
 -101.612
 -134.122
 -152.864
 -158.374
 -130.994
 -100.659
 -72.5225
 -42.9089
 -39.8919
 -62.5139
 -87.6869
 -108.083
 -131.743
 -134.453
 -113.403
 -89.3065
 -64.9518
 -39.5524
 -37.2293
 -56.4019
 -73.6927
 -90.0585
 -107.345
 -111.867
 -91.0738
 -73.9291
 -54.1559
 -36.1634
 -34.0034
 -47.766
 -57.6682
 -70.6977
 -79.2034
 -80.9368
 -68.7209
 -57.7812
 -45.766
 -34.8668
 -32.7273
 -37.2198
 -42.728
 -45.8019
 -49.5167
 -50.2638
 -46.0764
 -40.9427
 -37.4323
 -32.6048
 -29.1083
 -31.8105
 -35.1379
 -38.3365
 -40.8118
 -39.8914
 -37.5178
 -35.2723
 -32.6039
 -29.4404
 -32.1559
 -39.0854
 -47.4619
 -55.576
 -62.293
 -63.4341
 -55.2846
 -47.2497
 -39.1039
 -30.6745
 -33.5926
 -46.4004
 -60.4726
 -70.2365
 -84.1375
 -82.3903
 -73.0615
 -59.2247
 -45.9024
 -34.1038
 -35.3073
 -53.9213
 -72.5068
 -87.2565
 -104.932
 -103.754
 -89.1098
 -72.5576
 -53.6072
 -35.7178
 -38.9301
 -61.7296
 -84.3562
 -105.396
 -127.521
 -127.439
 -105.297
 -80.7939
 -61.8958
 -38.8471
 -39.781
 -61.8657
 -85.5857
 -104.833
 -130.81
 -125.573
 -108.098
 -85.895
 -63.6733
 -39.425
 -37.5482
 -56.4187
 -75.2593
 -94.4491
 -108.965
 -109.236
 -91.1862
 -74.8905
 -56.2244
 -37.6754
 -36.4374
 -49.6478
 -63.4831
 -78.7544
 -92.1411
 -92.98
 -75.987
 -63.8234
 -49.5436
 -36.3391
 -35.949
 -43.6415
 -53.9098
 -60.6444
 -71.7985
 -69.035
 -60.1095
 -52.2593
 -44.631
 -34.9237
 -33.5342
 -37.1738
 -39.9863
 -43.9695
 -47.2517
 -46.5647
 -43.6083
 -40.5368
 -36.9827
 -32.7279
 -31.0929
 -32.8956
 -34.8279
 -35.4124
 -38.2939
 -38.0762
 -36.1014
 -34.5532
 -33.162
 -30.442
 -31.3138
 -36.9098
 -41.6074
 -46.9108
 -52.2157
 -53.1204
 -46.7071
 -41.9527
 -37.4028
 -31.2357
 -32.4761
 -41.6876
 -48.9603
 -58.2749
 -66.6841
 -65.6587
 -57.7032
 -49.3373
 -41.439
 -32.7972
 -34.4786
 -46.2874
 -57.0448
 -67.6186
 -80.7196
 -80.371
 -69.0409
 -57.8127
 -45.5527
 -35.1326
 -35.6578
 -52.0757
 -65.464
 -79.3476
 -95.8076
 -94.4305
 -80.157
 -67.201
 -50.999
 -35.775
 -36.0838
 -50.5326
 -67.2653
 -82.5121
 -94.7428
 -96.884
 -80.661
 -67.902
 -50.7969
 -37.3817
 -35.7194
 -48.3599
 -59.5291
 -71.0583
 -80.8869
 -82.9262
 -72.3225
 -59.32
 -47.7577
 -35.9316
 -35.4797
 -44.8901
 -53.3325
 -61.2698
 -69.4978
 -69.8138
 -61.3375
 -53.7952
 -43.4557
 -35.0226
 -34.0828
 -40.506
 -45.158
 -52.8756
 -57.7922
 -56.8462
 -51.2897
 -45.6011
 -41.2485
 -35.1766
 -34.057
 -36.3407
 -38.9963
 -40.2224
 -42.8909
 -42.8244
 -41.5934
 -39.252
 -36.6853
 -34.4315
 -31.3018
 -32.8338
 -33.8527
 -34.33
 -35.3367
 -34.02
 -35.0707
 -34.3064
 -32.902
 -31.1483
 -31.2566
 -34.6334
 -36.6965
 -38.026
 -41.2478
 -40.1621
 -39.7876
 -35.7951
 -34.7363
 -31.7179
 -32.8497
 -36.3121
 -38.3714
 -41.2592
 -45.4392
 -45.074
 -41.4247
 -38.2577
 -36.0779
 -32.6651
 -33.1623
 -37.8489
 -41.1361
 -46.6124
 -49.4868
 -50.3235
 -47.0678
 -42.5967
 -37.0952
 -33.5735
 -34.0691
 -39.2868
 -45.2905
 -49.7062
 -55.185
 -54.5753
 -48.607
 -44.1015
 -40.4225
 -33.7825
 -34.2232
 -39.622
 -44.8305
 -50.9402
 -55.7657
 -55.5927
 -50.4838
 -45.3164
 -40.6393
 -34.4346
 -33.3974
 -38.5264
 -43.1284
 -46.8912
 -51.6601
 -51.4691
 -47.1849
 -41.5021
 -38.6667
 -34.2844
 -33.7855
 -37.7535
 -41.8676
 -43.5408
 -47.0366
 -47.9982
 -44.813
 -41.8055
 -38.2158
 -33.4322
 -34.1516
 -36.005
 -39.5974
 -41.8305
 -43.1937
 -44.5745
 -40.4438
 -38.4593
 -36.4181
 -33.968
 -35.5845
 -36.7698
 -36.9667
 -38.0099
 -39.4844
 -39.0713
 -37.5634
 -37.4732
 -36.7782
 -35.6768
