# vtk DataFile Version 2.0
Three-D cube divergence of heat flux and Q in volume elements
ASCII
DATASET UNSTRUCTURED_GRID

POINTS  1331  FLOAT
 -0.5 -0.5 -0.5
 -0.4 -0.5 -0.5
 -0.3 -0.5 -0.5
 -0.2 -0.5 -0.5
 -0.1 -0.5 -0.5
 0 -0.5 -0.5
 0.1 -0.5 -0.5
 0.2 -0.5 -0.5
 0.3 -0.5 -0.5
 0.4 -0.5 -0.5
 0.5 -0.5 -0.5
 -0.5 -0.4 -0.5
 -0.4 -0.4 -0.5
 -0.3 -0.4 -0.5
 -0.2 -0.4 -0.5
 -0.1 -0.4 -0.5
 0 -0.4 -0.5
 0.1 -0.4 -0.5
 0.2 -0.4 -0.5
 0.3 -0.4 -0.5
 0.4 -0.4 -0.5
 0.5 -0.4 -0.5
 -0.5 -0.3 -0.5
 -0.4 -0.3 -0.5
 -0.3 -0.3 -0.5
 -0.2 -0.3 -0.5
 -0.1 -0.3 -0.5
 0 -0.3 -0.5
 0.1 -0.3 -0.5
 0.2 -0.3 -0.5
 0.3 -0.3 -0.5
 0.4 -0.3 -0.5
 0.5 -0.3 -0.5
 -0.5 -0.2 -0.5
 -0.4 -0.2 -0.5
 -0.3 -0.2 -0.5
 -0.2 -0.2 -0.5
 -0.1 -0.2 -0.5
 0 -0.2 -0.5
 0.1 -0.2 -0.5
 0.2 -0.2 -0.5
 0.3 -0.2 -0.5
 0.4 -0.2 -0.5
 0.5 -0.2 -0.5
 -0.5 -0.1 -0.5
 -0.4 -0.1 -0.5
 -0.3 -0.1 -0.5
 -0.2 -0.1 -0.5
 -0.1 -0.1 -0.5
 0 -0.1 -0.5
 0.1 -0.1 -0.5
 0.2 -0.1 -0.5
 0.3 -0.1 -0.5
 0.4 -0.1 -0.5
 0.5 -0.1 -0.5
 -0.5 0 -0.5
 -0.4 0 -0.5
 -0.3 0 -0.5
 -0.2 0 -0.5
 -0.1 0 -0.5
 0 0 -0.5
 0.1 0 -0.5
 0.2 0 -0.5
 0.3 0 -0.5
 0.4 0 -0.5
 0.5 0 -0.5
 -0.5 0.1 -0.5
 -0.4 0.1 -0.5
 -0.3 0.1 -0.5
 -0.2 0.1 -0.5
 -0.1 0.1 -0.5
 0 0.1 -0.5
 0.1 0.1 -0.5
 0.2 0.1 -0.5
 0.3 0.1 -0.5
 0.4 0.1 -0.5
 0.5 0.1 -0.5
 -0.5 0.2 -0.5
 -0.4 0.2 -0.5
 -0.3 0.2 -0.5
 -0.2 0.2 -0.5
 -0.1 0.2 -0.5
 0 0.2 -0.5
 0.1 0.2 -0.5
 0.2 0.2 -0.5
 0.3 0.2 -0.5
 0.4 0.2 -0.5
 0.5 0.2 -0.5
 -0.5 0.3 -0.5
 -0.4 0.3 -0.5
 -0.3 0.3 -0.5
 -0.2 0.3 -0.5
 -0.1 0.3 -0.5
 0 0.3 -0.5
 0.1 0.3 -0.5
 0.2 0.3 -0.5
 0.3 0.3 -0.5
 0.4 0.3 -0.5
 0.5 0.3 -0.5
 -0.5 0.4 -0.5
 -0.4 0.4 -0.5
 -0.3 0.4 -0.5
 -0.2 0.4 -0.5
 -0.1 0.4 -0.5
 0 0.4 -0.5
 0.1 0.4 -0.5
 0.2 0.4 -0.5
 0.3 0.4 -0.5
 0.4 0.4 -0.5
 0.5 0.4 -0.5
 -0.5 0.5 -0.5
 -0.4 0.5 -0.5
 -0.3 0.5 -0.5
 -0.2 0.5 -0.5
 -0.1 0.5 -0.5
 0 0.5 -0.5
 0.1 0.5 -0.5
 0.2 0.5 -0.5
 0.3 0.5 -0.5
 0.4 0.5 -0.5
 0.5 0.5 -0.5
 -0.5 -0.5 -0.4
 -0.4 -0.5 -0.4
 -0.3 -0.5 -0.4
 -0.2 -0.5 -0.4
 -0.1 -0.5 -0.4
 0 -0.5 -0.4
 0.1 -0.5 -0.4
 0.2 -0.5 -0.4
 0.3 -0.5 -0.4
 0.4 -0.5 -0.4
 0.5 -0.5 -0.4
 -0.5 -0.4 -0.4
 -0.4 -0.4 -0.4
 -0.3 -0.4 -0.4
 -0.2 -0.4 -0.4
 -0.1 -0.4 -0.4
 0 -0.4 -0.4
 0.1 -0.4 -0.4
 0.2 -0.4 -0.4
 0.3 -0.4 -0.4
 0.4 -0.4 -0.4
 0.5 -0.4 -0.4
 -0.5 -0.3 -0.4
 -0.4 -0.3 -0.4
 -0.3 -0.3 -0.4
 -0.2 -0.3 -0.4
 -0.1 -0.3 -0.4
 0 -0.3 -0.4
 0.1 -0.3 -0.4
 0.2 -0.3 -0.4
 0.3 -0.3 -0.4
 0.4 -0.3 -0.4
 0.5 -0.3 -0.4
 -0.5 -0.2 -0.4
 -0.4 -0.2 -0.4
 -0.3 -0.2 -0.4
 -0.2 -0.2 -0.4
 -0.1 -0.2 -0.4
 0 -0.2 -0.4
 0.1 -0.2 -0.4
 0.2 -0.2 -0.4
 0.3 -0.2 -0.4
 0.4 -0.2 -0.4
 0.5 -0.2 -0.4
 -0.5 -0.1 -0.4
 -0.4 -0.1 -0.4
 -0.3 -0.1 -0.4
 -0.2 -0.1 -0.4
 -0.1 -0.1 -0.4
 0 -0.1 -0.4
 0.1 -0.1 -0.4
 0.2 -0.1 -0.4
 0.3 -0.1 -0.4
 0.4 -0.1 -0.4
 0.5 -0.1 -0.4
 -0.5 0 -0.4
 -0.4 0 -0.4
 -0.3 0 -0.4
 -0.2 0 -0.4
 -0.1 0 -0.4
 0 0 -0.4
 0.1 0 -0.4
 0.2 0 -0.4
 0.3 0 -0.4
 0.4 0 -0.4
 0.5 0 -0.4
 -0.5 0.1 -0.4
 -0.4 0.1 -0.4
 -0.3 0.1 -0.4
 -0.2 0.1 -0.4
 -0.1 0.1 -0.4
 0 0.1 -0.4
 0.1 0.1 -0.4
 0.2 0.1 -0.4
 0.3 0.1 -0.4
 0.4 0.1 -0.4
 0.5 0.1 -0.4
 -0.5 0.2 -0.4
 -0.4 0.2 -0.4
 -0.3 0.2 -0.4
 -0.2 0.2 -0.4
 -0.1 0.2 -0.4
 0 0.2 -0.4
 0.1 0.2 -0.4
 0.2 0.2 -0.4
 0.3 0.2 -0.4
 0.4 0.2 -0.4
 0.5 0.2 -0.4
 -0.5 0.3 -0.4
 -0.4 0.3 -0.4
 -0.3 0.3 -0.4
 -0.2 0.3 -0.4
 -0.1 0.3 -0.4
 0 0.3 -0.4
 0.1 0.3 -0.4
 0.2 0.3 -0.4
 0.3 0.3 -0.4
 0.4 0.3 -0.4
 0.5 0.3 -0.4
 -0.5 0.4 -0.4
 -0.4 0.4 -0.4
 -0.3 0.4 -0.4
 -0.2 0.4 -0.4
 -0.1 0.4 -0.4
 0 0.4 -0.4
 0.1 0.4 -0.4
 0.2 0.4 -0.4
 0.3 0.4 -0.4
 0.4 0.4 -0.4
 0.5 0.4 -0.4
 -0.5 0.5 -0.4
 -0.4 0.5 -0.4
 -0.3 0.5 -0.4
 -0.2 0.5 -0.4
 -0.1 0.5 -0.4
 0 0.5 -0.4
 0.1 0.5 -0.4
 0.2 0.5 -0.4
 0.3 0.5 -0.4
 0.4 0.5 -0.4
 0.5 0.5 -0.4
 -0.5 -0.5 -0.3
 -0.4 -0.5 -0.3
 -0.3 -0.5 -0.3
 -0.2 -0.5 -0.3
 -0.1 -0.5 -0.3
 0 -0.5 -0.3
 0.1 -0.5 -0.3
 0.2 -0.5 -0.3
 0.3 -0.5 -0.3
 0.4 -0.5 -0.3
 0.5 -0.5 -0.3
 -0.5 -0.4 -0.3
 -0.4 -0.4 -0.3
 -0.3 -0.4 -0.3
 -0.2 -0.4 -0.3
 -0.1 -0.4 -0.3
 0 -0.4 -0.3
 0.1 -0.4 -0.3
 0.2 -0.4 -0.3
 0.3 -0.4 -0.3
 0.4 -0.4 -0.3
 0.5 -0.4 -0.3
 -0.5 -0.3 -0.3
 -0.4 -0.3 -0.3
 -0.3 -0.3 -0.3
 -0.2 -0.3 -0.3
 -0.1 -0.3 -0.3
 0 -0.3 -0.3
 0.1 -0.3 -0.3
 0.2 -0.3 -0.3
 0.3 -0.3 -0.3
 0.4 -0.3 -0.3
 0.5 -0.3 -0.3
 -0.5 -0.2 -0.3
 -0.4 -0.2 -0.3
 -0.3 -0.2 -0.3
 -0.2 -0.2 -0.3
 -0.1 -0.2 -0.3
 0 -0.2 -0.3
 0.1 -0.2 -0.3
 0.2 -0.2 -0.3
 0.3 -0.2 -0.3
 0.4 -0.2 -0.3
 0.5 -0.2 -0.3
 -0.5 -0.1 -0.3
 -0.4 -0.1 -0.3
 -0.3 -0.1 -0.3
 -0.2 -0.1 -0.3
 -0.1 -0.1 -0.3
 0 -0.1 -0.3
 0.1 -0.1 -0.3
 0.2 -0.1 -0.3
 0.3 -0.1 -0.3
 0.4 -0.1 -0.3
 0.5 -0.1 -0.3
 -0.5 0 -0.3
 -0.4 0 -0.3
 -0.3 0 -0.3
 -0.2 0 -0.3
 -0.1 0 -0.3
 0 0 -0.3
 0.1 0 -0.3
 0.2 0 -0.3
 0.3 0 -0.3
 0.4 0 -0.3
 0.5 0 -0.3
 -0.5 0.1 -0.3
 -0.4 0.1 -0.3
 -0.3 0.1 -0.3
 -0.2 0.1 -0.3
 -0.1 0.1 -0.3
 0 0.1 -0.3
 0.1 0.1 -0.3
 0.2 0.1 -0.3
 0.3 0.1 -0.3
 0.4 0.1 -0.3
 0.5 0.1 -0.3
 -0.5 0.2 -0.3
 -0.4 0.2 -0.3
 -0.3 0.2 -0.3
 -0.2 0.2 -0.3
 -0.1 0.2 -0.3
 0 0.2 -0.3
 0.1 0.2 -0.3
 0.2 0.2 -0.3
 0.3 0.2 -0.3
 0.4 0.2 -0.3
 0.5 0.2 -0.3
 -0.5 0.3 -0.3
 -0.4 0.3 -0.3
 -0.3 0.3 -0.3
 -0.2 0.3 -0.3
 -0.1 0.3 -0.3
 0 0.3 -0.3
 0.1 0.3 -0.3
 0.2 0.3 -0.3
 0.3 0.3 -0.3
 0.4 0.3 -0.3
 0.5 0.3 -0.3
 -0.5 0.4 -0.3
 -0.4 0.4 -0.3
 -0.3 0.4 -0.3
 -0.2 0.4 -0.3
 -0.1 0.4 -0.3
 0 0.4 -0.3
 0.1 0.4 -0.3
 0.2 0.4 -0.3
 0.3 0.4 -0.3
 0.4 0.4 -0.3
 0.5 0.4 -0.3
 -0.5 0.5 -0.3
 -0.4 0.5 -0.3
 -0.3 0.5 -0.3
 -0.2 0.5 -0.3
 -0.1 0.5 -0.3
 0 0.5 -0.3
 0.1 0.5 -0.3
 0.2 0.5 -0.3
 0.3 0.5 -0.3
 0.4 0.5 -0.3
 0.5 0.5 -0.3
 -0.5 -0.5 -0.2
 -0.4 -0.5 -0.2
 -0.3 -0.5 -0.2
 -0.2 -0.5 -0.2
 -0.1 -0.5 -0.2
 0 -0.5 -0.2
 0.1 -0.5 -0.2
 0.2 -0.5 -0.2
 0.3 -0.5 -0.2
 0.4 -0.5 -0.2
 0.5 -0.5 -0.2
 -0.5 -0.4 -0.2
 -0.4 -0.4 -0.2
 -0.3 -0.4 -0.2
 -0.2 -0.4 -0.2
 -0.1 -0.4 -0.2
 0 -0.4 -0.2
 0.1 -0.4 -0.2
 0.2 -0.4 -0.2
 0.3 -0.4 -0.2
 0.4 -0.4 -0.2
 0.5 -0.4 -0.2
 -0.5 -0.3 -0.2
 -0.4 -0.3 -0.2
 -0.3 -0.3 -0.2
 -0.2 -0.3 -0.2
 -0.1 -0.3 -0.2
 0 -0.3 -0.2
 0.1 -0.3 -0.2
 0.2 -0.3 -0.2
 0.3 -0.3 -0.2
 0.4 -0.3 -0.2
 0.5 -0.3 -0.2
 -0.5 -0.2 -0.2
 -0.4 -0.2 -0.2
 -0.3 -0.2 -0.2
 -0.2 -0.2 -0.2
 -0.1 -0.2 -0.2
 0 -0.2 -0.2
 0.1 -0.2 -0.2
 0.2 -0.2 -0.2
 0.3 -0.2 -0.2
 0.4 -0.2 -0.2
 0.5 -0.2 -0.2
 -0.5 -0.1 -0.2
 -0.4 -0.1 -0.2
 -0.3 -0.1 -0.2
 -0.2 -0.1 -0.2
 -0.1 -0.1 -0.2
 0 -0.1 -0.2
 0.1 -0.1 -0.2
 0.2 -0.1 -0.2
 0.3 -0.1 -0.2
 0.4 -0.1 -0.2
 0.5 -0.1 -0.2
 -0.5 0 -0.2
 -0.4 0 -0.2
 -0.3 0 -0.2
 -0.2 0 -0.2
 -0.1 0 -0.2
 0 0 -0.2
 0.1 0 -0.2
 0.2 0 -0.2
 0.3 0 -0.2
 0.4 0 -0.2
 0.5 0 -0.2
 -0.5 0.1 -0.2
 -0.4 0.1 -0.2
 -0.3 0.1 -0.2
 -0.2 0.1 -0.2
 -0.1 0.1 -0.2
 0 0.1 -0.2
 0.1 0.1 -0.2
 0.2 0.1 -0.2
 0.3 0.1 -0.2
 0.4 0.1 -0.2
 0.5 0.1 -0.2
 -0.5 0.2 -0.2
 -0.4 0.2 -0.2
 -0.3 0.2 -0.2
 -0.2 0.2 -0.2
 -0.1 0.2 -0.2
 0 0.2 -0.2
 0.1 0.2 -0.2
 0.2 0.2 -0.2
 0.3 0.2 -0.2
 0.4 0.2 -0.2
 0.5 0.2 -0.2
 -0.5 0.3 -0.2
 -0.4 0.3 -0.2
 -0.3 0.3 -0.2
 -0.2 0.3 -0.2
 -0.1 0.3 -0.2
 0 0.3 -0.2
 0.1 0.3 -0.2
 0.2 0.3 -0.2
 0.3 0.3 -0.2
 0.4 0.3 -0.2
 0.5 0.3 -0.2
 -0.5 0.4 -0.2
 -0.4 0.4 -0.2
 -0.3 0.4 -0.2
 -0.2 0.4 -0.2
 -0.1 0.4 -0.2
 0 0.4 -0.2
 0.1 0.4 -0.2
 0.2 0.4 -0.2
 0.3 0.4 -0.2
 0.4 0.4 -0.2
 0.5 0.4 -0.2
 -0.5 0.5 -0.2
 -0.4 0.5 -0.2
 -0.3 0.5 -0.2
 -0.2 0.5 -0.2
 -0.1 0.5 -0.2
 0 0.5 -0.2
 0.1 0.5 -0.2
 0.2 0.5 -0.2
 0.3 0.5 -0.2
 0.4 0.5 -0.2
 0.5 0.5 -0.2
 -0.5 -0.5 -0.1
 -0.4 -0.5 -0.1
 -0.3 -0.5 -0.1
 -0.2 -0.5 -0.1
 -0.1 -0.5 -0.1
 0 -0.5 -0.1
 0.1 -0.5 -0.1
 0.2 -0.5 -0.1
 0.3 -0.5 -0.1
 0.4 -0.5 -0.1
 0.5 -0.5 -0.1
 -0.5 -0.4 -0.1
 -0.4 -0.4 -0.1
 -0.3 -0.4 -0.1
 -0.2 -0.4 -0.1
 -0.1 -0.4 -0.1
 0 -0.4 -0.1
 0.1 -0.4 -0.1
 0.2 -0.4 -0.1
 0.3 -0.4 -0.1
 0.4 -0.4 -0.1
 0.5 -0.4 -0.1
 -0.5 -0.3 -0.1
 -0.4 -0.3 -0.1
 -0.3 -0.3 -0.1
 -0.2 -0.3 -0.1
 -0.1 -0.3 -0.1
 0 -0.3 -0.1
 0.1 -0.3 -0.1
 0.2 -0.3 -0.1
 0.3 -0.3 -0.1
 0.4 -0.3 -0.1
 0.5 -0.3 -0.1
 -0.5 -0.2 -0.1
 -0.4 -0.2 -0.1
 -0.3 -0.2 -0.1
 -0.2 -0.2 -0.1
 -0.1 -0.2 -0.1
 0 -0.2 -0.1
 0.1 -0.2 -0.1
 0.2 -0.2 -0.1
 0.3 -0.2 -0.1
 0.4 -0.2 -0.1
 0.5 -0.2 -0.1
 -0.5 -0.1 -0.1
 -0.4 -0.1 -0.1
 -0.3 -0.1 -0.1
 -0.2 -0.1 -0.1
 -0.1 -0.1 -0.1
 0 -0.1 -0.1
 0.1 -0.1 -0.1
 0.2 -0.1 -0.1
 0.3 -0.1 -0.1
 0.4 -0.1 -0.1
 0.5 -0.1 -0.1
 -0.5 0 -0.1
 -0.4 0 -0.1
 -0.3 0 -0.1
 -0.2 0 -0.1
 -0.1 0 -0.1
 0 0 -0.1
 0.1 0 -0.1
 0.2 0 -0.1
 0.3 0 -0.1
 0.4 0 -0.1
 0.5 0 -0.1
 -0.5 0.1 -0.1
 -0.4 0.1 -0.1
 -0.3 0.1 -0.1
 -0.2 0.1 -0.1
 -0.1 0.1 -0.1
 0 0.1 -0.1
 0.1 0.1 -0.1
 0.2 0.1 -0.1
 0.3 0.1 -0.1
 0.4 0.1 -0.1
 0.5 0.1 -0.1
 -0.5 0.2 -0.1
 -0.4 0.2 -0.1
 -0.3 0.2 -0.1
 -0.2 0.2 -0.1
 -0.1 0.2 -0.1
 0 0.2 -0.1
 0.1 0.2 -0.1
 0.2 0.2 -0.1
 0.3 0.2 -0.1
 0.4 0.2 -0.1
 0.5 0.2 -0.1
 -0.5 0.3 -0.1
 -0.4 0.3 -0.1
 -0.3 0.3 -0.1
 -0.2 0.3 -0.1
 -0.1 0.3 -0.1
 0 0.3 -0.1
 0.1 0.3 -0.1
 0.2 0.3 -0.1
 0.3 0.3 -0.1
 0.4 0.3 -0.1
 0.5 0.3 -0.1
 -0.5 0.4 -0.1
 -0.4 0.4 -0.1
 -0.3 0.4 -0.1
 -0.2 0.4 -0.1
 -0.1 0.4 -0.1
 0 0.4 -0.1
 0.1 0.4 -0.1
 0.2 0.4 -0.1
 0.3 0.4 -0.1
 0.4 0.4 -0.1
 0.5 0.4 -0.1
 -0.5 0.5 -0.1
 -0.4 0.5 -0.1
 -0.3 0.5 -0.1
 -0.2 0.5 -0.1
 -0.1 0.5 -0.1
 0 0.5 -0.1
 0.1 0.5 -0.1
 0.2 0.5 -0.1
 0.3 0.5 -0.1
 0.4 0.5 -0.1
 0.5 0.5 -0.1
 -0.5 -0.5 0
 -0.4 -0.5 0
 -0.3 -0.5 0
 -0.2 -0.5 0
 -0.1 -0.5 0
 0 -0.5 0
 0.1 -0.5 0
 0.2 -0.5 0
 0.3 -0.5 0
 0.4 -0.5 0
 0.5 -0.5 0
 -0.5 -0.4 0
 -0.4 -0.4 0
 -0.3 -0.4 0
 -0.2 -0.4 0
 -0.1 -0.4 0
 0 -0.4 0
 0.1 -0.4 0
 0.2 -0.4 0
 0.3 -0.4 0
 0.4 -0.4 0
 0.5 -0.4 0
 -0.5 -0.3 0
 -0.4 -0.3 0
 -0.3 -0.3 0
 -0.2 -0.3 0
 -0.1 -0.3 0
 0 -0.3 0
 0.1 -0.3 0
 0.2 -0.3 0
 0.3 -0.3 0
 0.4 -0.3 0
 0.5 -0.3 0
 -0.5 -0.2 0
 -0.4 -0.2 0
 -0.3 -0.2 0
 -0.2 -0.2 0
 -0.1 -0.2 0
 0 -0.2 0
 0.1 -0.2 0
 0.2 -0.2 0
 0.3 -0.2 0
 0.4 -0.2 0
 0.5 -0.2 0
 -0.5 -0.1 0
 -0.4 -0.1 0
 -0.3 -0.1 0
 -0.2 -0.1 0
 -0.1 -0.1 0
 0 -0.1 0
 0.1 -0.1 0
 0.2 -0.1 0
 0.3 -0.1 0
 0.4 -0.1 0
 0.5 -0.1 0
 -0.5 0 0
 -0.4 0 0
 -0.3 0 0
 -0.2 0 0
 -0.1 0 0
 0 0 0
 0.1 0 0
 0.2 0 0
 0.3 0 0
 0.4 0 0
 0.5 0 0
 -0.5 0.1 0
 -0.4 0.1 0
 -0.3 0.1 0
 -0.2 0.1 0
 -0.1 0.1 0
 0 0.1 0
 0.1 0.1 0
 0.2 0.1 0
 0.3 0.1 0
 0.4 0.1 0
 0.5 0.1 0
 -0.5 0.2 0
 -0.4 0.2 0
 -0.3 0.2 0
 -0.2 0.2 0
 -0.1 0.2 0
 0 0.2 0
 0.1 0.2 0
 0.2 0.2 0
 0.3 0.2 0
 0.4 0.2 0
 0.5 0.2 0
 -0.5 0.3 0
 -0.4 0.3 0
[...]
CELL_DATA 1000
FIELD DOMAIN 2
VOL_DIV_q 1 1000 FLOAT 
 0.387975
 0.393035
 0.396542
 0.405626
 0.409777
 0.407922
 0.40206
 0.398894
 0.392009
 0.389451
 0.393538
 0.409475
 0.428507
 0.445485
 0.463967
 0.464708
 0.44562
 0.428236
 0.408114
 0.39204
 0.398188
 0.427175
 0.457869
 0.48661
 0.519285
 0.517078
 0.487331
 0.45779
 0.428923
 0.396962
 0.403439
 0.443077
 0.487806
 0.532712
 0.572718
 0.573696
 0.528901
 0.488826
 0.444936
 0.403167
 0.409143
 0.464185
 0.518818
 0.571942
 0.628014
 0.627418
 0.574325
 0.520267
 0.46434
 0.411324
 0.411722
 0.462815
 0.51848
 0.571981
 0.63003
 0.630353
 0.575368
 0.517918
 0.465936
 0.408883
 0.402425
 0.445926
 0.488677
 0.526891
 0.577281
 0.56976
 0.529071
 0.489042
 0.445165
 0.405323
 0.397867
 0.426167
 0.454683
 0.486305
 0.517303
 0.517394
 0.486334
 0.457207
 0.427001
 0.400113
 0.392798
 0.412035
 0.426548
 0.446982
 0.463979
 0.464124
 0.445611
 0.427465
 0.410763
 0.39271
 0.388831
 0.391232
 0.398227
 0.402147
 0.410479
 0.40805
 0.403133
 0.397356
 0.391474
 0.389011
 0.391651
 0.408867
 0.426562
 0.446193
 0.465493
 0.464951
 0.444862
 0.426424
 0.409063
 0.395166
 0.40979
 0.466883
 0.52132
 0.575366
 0.630958
 0.630186
 0.574706
 0.516849
 0.465113
 0.407791
 0.429503
 0.519858
 0.611434
 0.703399
 0.795798
 0.794272
 0.701675
 0.614922
 0.518702
 0.426567
 0.44414
 0.572734
 0.70236
 0.82798
 0.95199
 0.952277
 0.830189
 0.706321
 0.574614
 0.447558
 0.465831
 0.630835
 0.795187
 0.950448
 1.11362
 1.11968
 0.953943
 0.794151
 0.634734
 0.463999
 0.464082
 0.63222
 0.800237
 0.958152
 1.11885
 1.11218
 0.952854
 0.795159
 0.632133
 0.462584
 0.444743
 0.574307
 0.70135
 0.829686
 0.951877
 0.950263
 0.823629
 0.699999
 0.577998
 0.444573
 0.42937
 0.518683
 0.612823
 0.699723
 0.791599
 0.796926
 0.702776
 0.611264
 0.521123
 0.428502
 0.410934
 0.466038
 0.52174
 0.575641
 0.630883
 0.633708
 0.574637
 0.521008
 0.463442
 0.410492
 0.392891
 0.409659
 0.425434
 0.446514
 0.462775
 0.46588
 0.444267
 0.42798
 0.408623
 0.392544
 0.398121
 0.429316
 0.458522
 0.488988
 0.519663
 0.519901
 0.486588
 0.454422
 0.428513
 0.396891
 0.427622
 0.519713
 0.612154
 0.698449
 0.795202
 0.793359
 0.70309
 0.611759
 0.521289
 0.425796
 0.456688
 0.611961
 0.764773
 0.910307
 1.0578
 1.06088
 0.906544
 0.759449
 0.608245
 0.458556
 0.487896
 0.703342
 0.910428
 1.10508
 1.31098
 1.30806
 1.10856
 0.908372
 0.699461
 0.488966
 0.521587
 0.792691
 1.0574
 1.30918
 1.56222
 1.56202
 1.30794
 1.05801
 0.794424
 0.520957
 0.522098
 0.795067
 1.05449
 1.30332
 1.55973
 1.55913
 1.30921
 1.05258
 0.79405
 0.517891
 0.488348
 0.70334
 0.908376
 1.10894
 1.30798
 1.30649
 1.1081
 0.909643
 0.705051
 0.488031
 0.456262
 0.610421
 0.758497
 0.90656
 1.05973
 1.05394
 0.909652
 0.763711
 0.611965
 0.456562
 0.426034
 0.520864
 0.612091
 0.699697
 0.794539
 0.792999
 0.699533
 0.612406
 0.520033
 0.426416
 0.394834
 0.427085
 0.455871
 0.487936
 0.518953
 0.520581
 0.488045
 0.453702
 0.425664
 0.397345
 0.403878
 0.445778
 0.48601
 0.532555
 0.575677
 0.574236
 0.531398
 0.488732
 0.446296
 0.403221
 0.445232
 0.5722
 0.701033
 0.82558
 0.951779
 0.956145
 0.82863
 0.698656
 0.572289
 0.445472
 0.489132
 0.70009
 0.90859
 1.10604
 1.30577
 1.31043
 1.10814
 0.907623
 0.701888
 0.487942
 0.527862
 0.831197
 1.1071
 1.38147
 1.64026
 1.64395
 1.37201
 1.11145
 0.827921
 0.527455
 0.575326
 0.952923
 1.30561
 1.64467
 1.96835
 1.97535
 1.64858
 1.30923
 0.953933
 0.572565
 0.571241
 0.953245
 1.29806
 1.6491
 1.97665
 1.98266
 1.64913
 1.30698
 0.957618
 0.574602
 0.532494
 0.828859
 1.10349
 1.3779
 1.63286
 1.64282
 1.38083
 1.10501
 0.829052
 0.528381
 0.488708
 0.703264
 0.91015
 1.1044
 1.31278
 1.30963
 1.1085
 0.91467
 0.703674
 0.48606
 0.447699
 0.573801
 0.700216
 0.827178
 0.949159
 0.952907
 0.829598
 0.702765
 0.574729
 0.445789
 0.401514
 0.445891
 0.487815
 0.531792
 0.573217
 0.573221
 0.528914
 0.487687
 0.44557
 0.403094
 0.410605
 0.464167
 0.517899
 0.573014
 0.629864
 0.628687
 0.574879
 0.519443
 0.465679
 0.408893
 0.463837
 0.628946
 0.799333
 0.954681
 1.11259
 1.11512
 0.951816
 0.795121
 0.632851
 0.467149
 0.518871
 0.795122
 1.05686
 1.30747
 1.5651
 1.5662
 1.30469
 1.05071
 0.795888
 0.52039
 0.575096
 0.950426
 1.31101
 1.64407
 1.9757
 1.97399
 1.64692
 1.31631
 0.955043
 0.571956
 0.629145
 1.11642
 1.5562
 1.97164
 2.38181
 2.38964
 1.97729
 1.56219
 1.11318
 0.626767
 0.629568
 1.11727
 1.55853
 1.97716
 2.39286
 2.39448
 1.98112
 1.55896
 1.11534
 0.633035
 0.571946
 0.953448
 1.31101
 1.65002
 1.97496
 1.97902
 1.63592
 1.30862
 0.954691
 0.57174
 0.519313
 0.795594
 1.05681
 1.30624
 1.55058
 1.55782
 1.30667
 1.05449
 0.792291
 0.520875
 0.461866
 0.630682
 0.792317
 0.954954
 1.11384
 1.11363
 0.952241
 0.79554
 0.630723
 0.465025
 0.410057
 0.465428
 0.518609
 0.575038
 0.630877
 0.630348
 0.572927
 0.519159
 0.463207
 0.409825
 0.407925
 0.46381
 0.51847
 0.572948
 0.629677
 0.628817
 0.573267
 0.518504
 0.462093
 0.410282
 0.464541
 0.635116
 0.79807
 0.952341
 1.11031
 1.11088
 0.953793
 0.797507
 0.630364
 0.462095
 0.52239
 0.793642
 1.0622
 1.30673
 1.56173
 1.56081
 1.31053
 1.05946
 0.791435
 0.515771
 0.572062
 0.959495
 1.3095
 1.64505
 1.97629
 1.97074
 1.64288
 1.3009
 0.953724
 0.575447
 0.626838
 1.10963
 1.55835
 1.97442
 2.38391
 2.38971
 1.97863
 1.55621
 1.11342
 0.63325
 0.625773
 1.10878
 1.56523
 1.96554
 2.38719
 2.38622
 1.9774
 1.56662
 1.12038
 0.626074
 0.571928
 0.951539
 1.30904
 1.64457
 1.96954
 1.97951
 1.64136
 1.30427
 0.954689
 0.574093
 0.519174
 0.791579
 1.05431
 1.30608
 1.56037
 1.56185
 1.30653
 1.05291
 0.79073
 0.517668
 0.465116
 0.633418
 0.791942
 0.952623
 1.11024
 1.11186
 0.954598
 0.794102
 0.633348
 0.464023
 0.408094
 0.463484
 0.519955
 0.571333
 0.629788
 0.629058
 0.575838
 0.51923
 0.464914
 0.40887
 0.403042
 0.443271
 0.488115
 0.530387
 0.577799
 0.573595
 0.53263
 0.485605
 0.445771
 0.405151
 0.443861
 0.579211
 0.699507
 0.826972
 0.947234
 0.956035
 0.829679
 0.702387
 0.574091
 0.444021
 0.489083
 0.702653
 0.910831
 1.11116
 1.31144
 1.31409
 1.10712
 0.908654
 0.699648
 0.487439
 0.527918
 0.831602
 1.10382
 1.37888
 1.63415
 1.64022
 1.37809
 1.11394
 0.831092
 0.528245
 0.575169
 0.953535
 1.30986
 1.64238
 1.96952
 1.97383
 1.64532
 1.30644
 0.960088
 0.574726
 0.571763
 0.954584
 1.30964
 1.64624
 1.97213
 1.98081
 1.63829
 1.3137
 0.954965
 0.57228
 0.532085
 0.825523
 1.10555
 1.37997
 1.64104
 1.65523
 1.37436
 1.1088
 0.823541
 0.530719
 0.485842
 0.703711
 0.905866
 1.10886
 1.30815
 1.30208
 1.10917
 0.911506
 0.705456
 0.487466
 0.445288
 0.575367
 0.704189
 0.825532
 0.950883
 0.955348
 0.830614
 0.700867
 0.574779
 0.445389
 0.403458
 0.444344
 0.485855
 0.532089
 0.572985
 0.573094
 0.52975
 0.484703
 0.445805
 0.402726
 0.396911
 0.427978
 0.457647
 0.485333
 0.521582
 0.520028
 0.487551
 0.45542
 0.427041
 0.397316
 0.426499
 0.520432
 0.611121
 0.704689
 0.791162
 0.789754
 0.701916
 0.611732
 0.520104
 0.427441
 0.454178
 0.612227
 0.759473
 0.913145
 1.05416
 1.05574
 0.90625
 0.762193
 0.6149
 0.45642
 0.489659
 0.703713
 0.904919
 1.10222
 1.30443
 1.30643
 1.10262
 0.904477
 0.699873
 0.484231
 0.51715
 0.792683
 1.0528
 1.30468
 1.55618
 1.55903
 1.31165
 1.0529
 0.791825
 0.519764
 0.517721
 0.795911
 1.05442
 1.31878
 1.56231
 1.56112
 1.30973
 1.05679
 0.793718
 0.522756
 0.487775
 0.701576
 0.90568
 1.11255
 1.30606
 1.30617
 1.10558
 0.910991
 0.702497
 0.487003
 0.456847
 0.614585
 0.760155
 0.905316
 1.05249
 1.05599
 0.910257
 0.760894
 0.612554
 0.459476
 0.42743
 0.522083
 0.612304
 0.702818
 0.79918
 0.798406
 0.699506
 0.612914
 0.519649
 0.427243
 0.397658
 0.426934
 0.458072
 0.487705
 0.517579
 0.516974
 0.487235
 0.454502
 0.427777
 0.397761
 0.390519
 0.411028
 0.425639
 0.446048
 0.466495
 0.463589
 0.444358
 0.426806
 0.409249
 0.392774
 0.410702
 0.466452
 0.520933
 0.574788
 0.632739
 0.629427
 0.574676
 0.516314
 0.463858
 0.409748
 0.425156
 0.519504
 0.614292
 0.700175
 0.795641
 0.796321
 0.700426
 0.609636
 0.520752
 0.425715
 0.44542
 0.573945
 0.706896
 0.834073
 0.950382
 0.952975
 0.825468
 0.70415
 0.576652
 0.446043
 0.463749
 0.631333
 0.792861
 0.949599
 1.11608
 1.11103
 0.960174
 0.795316
 0.632164
 0.465991
 0.463199
 0.629172
 0.79692
 0.959273
 1.1112
 1.11301
 0.955241
 0.794473
 0.631203
 0.465175
 0.444527
 0.579202
 0.700571
 0.831004
 0.950135
 0.960952
 0.829747
 0.701175
 0.57751
 0.444277
 0.425095
 0.520416
 0.610937
 0.704321
 0.794092
 0.79369
 0.702832
 0.61146
 0.522447
 0.42799
 0.409934
 0.4649
 0.517053
 0.576896
 0.632461
 0.632807
 0.575346
 0.52095
 0.465578
 0.408905
 0.392761
 0.410755
 0.427081
 0.445141
 0.464463
 0.463037
 0.444613
 0.427629
 0.408973
 0.392984
 0.388694
 0.394166
 0.397182
 0.403198
 0.408408
 0.408834
 0.402757
 0.397592
 0.393185
 0.38923
 0.393199
 0.41054
 0.428179
 0.446188
 0.464944
 0.463315
 0.442253
 0.428477
 0.408983
 0.391278
 0.396216
 0.428286
 0.457637
 0.488637
 0.519499
 0.519813
 0.485364
 0.456951
 0.430143
 0.397438
 0.401833
 0.448667
 0.488947
 0.52935
 0.57383
 0.572181
 0.530507
 0.485784
 0.444817
 0.403247
 0.410542
 0.463091
 0.516968
 0.574031
 0.631335
 0.628332
 0.572369
 0.520683
 0.467412
 0.40904
 0.40975
 0.465195
 0.518029
 0.577004
 0.630871
 0.630426
 0.570721
 0.519464
 0.461378
 0.40989
 0.40309
 0.445983
 0.490194
 0.533618
 0.572966
 0.571078
 0.528504
 0.48926
 0.445401
 0.404036
 0.398179
 0.427595
 0.454894
 0.485881
 0.517403
 0.51707
 0.487592
 0.457164
 0.427937
 0.399476
 0.39356
 0.409918
 0.425487
 0.447256
 0.464351
 0.462978
 0.443065
 0.425661
 0.408793
 0.392112
 0.387105
 0.392738
 0.396438
 0.405603
 0.409862
 0.406541
 0.404257
 0.396627
 0.392969
 0.389618

Vol_HEAT_Q 1 1000 FLOAT 
 0.000387975
 0.000393035
 0.000396542
 0.000405626
 0.000409777
 0.000407922
 0.00040206
 0.000398894
 0.000392009
 0.000389451
 0.000393538
 0.000409475
 0.000428507
 0.000445485
 0.000463967
 0.000464708
 0.00044562
 0.000428236
 0.000408114
 0.00039204
 0.000398188
 0.000427175
 0.000457869
 0.00048661
 0.000519285
 0.000517078
 0.000487331
 0.00045779
 0.000428923
 0.000396962
 0.000403439
 0.000443077
 0.000487806
 0.000532712
 0.000572718
 0.000573696
 0.000528901
 0.000488826
 0.000444936
 0.000403167
 0.000409143
 0.000464185
 0.000518818
 0.000571942
 0.000628014
 0.000627418
 0.000574325
 0.000520267
 0.00046434
 0.000411324
 0.000411722
 0.000462815
 0.00051848
 0.000571981
 0.00063003
 0.000630353
 0.000575368
 0.000517918
 0.000465936
 0.000408883
 0.000402425
 0.000445926
 0.000488677
 0.000526891
 0.000577281
 0.00056976
 0.000529071
 0.000489042
 0.000445165
 0.000405323
 0.000397867
 0.000426167
 0.000454683
 0.000486305
 0.000517303
 0.000517394
 0.000486334
 0.000457207
 0.000427001
 0.000400113
 0.000392798
 0.000412035
 0.000426548
 0.000446982
 0.000463979
 0.000464124
 0.000445611
 0.000427465
 0.000410763
 0.00039271
 0.000388831
 0.000391232
 0.000398227
 0.000402147
 0.000410479
 0.00040805
 0.000403133
 0.000397356
 0.000391474
 0.000389011
 0.000391651
 0.000408867
 0.000426562
 0.000446193
 0.000465493
 0.000464951
 0.000444862
 0.000426424
 0.000409063
 0.000395166
 0.00040979
 0.000466883
 0.00052132
 0.000575366
 0.000630958
 0.000630186
 0.000574706
 0.000516849
 0.000465113
 0.000407791
 0.000429503
 0.000519858
 0.000611434
 0.000703399
 0.000795798
 0.000794272
 0.000701675
 0.000614922
 0.000518702
 0.000426567
 0.00044414
 0.000572734
 0.00070236
 0.00082798
 0.00095199
 0.000952277
 0.000830189
 0.000706321
 0.000574614
 0.000447558
 0.000465831
 0.000630835
 0.000795187
 0.000950448
 0.00111362
 0.00111968
 0.000953943
 0.000794151
 0.000634734
 0.000463999
 0.000464082
 0.00063222
 0.000800237
 0.000958152
 0.00111885
 0.00111218
 0.000952854
 0.000795159
 0.000632133
 0.000462584
 0.000444743
 0.000574307
 0.00070135
 0.000829686
 0.000951877
 0.000950263
 0.000823629
 0.000699999
 0.000577998
 0.000444573
 0.00042937
 0.000518683
 0.000612823
 0.000699723
 0.000791599
 0.000796926
 0.000702776
 0.000611264
 0.000521123
 0.000428502
 0.000410934
 0.000466038
 0.00052174
 0.000575641
 0.000630883
 0.000633708
 0.000574637
 0.000521008
 0.000463442
 0.000410492
 0.000392891
 0.000409659
 0.000425434
 0.000446514
 0.000462775
 0.00046588
 0.000444267
 0.00042798
 0.000408623
 0.000392544
 0.000398121
 0.000429316
 0.000458522
 0.000488988
 0.000519663
 0.000519901
 0.000486588
 0.000454422
 0.000428513
 0.000396891
 0.000427622
 0.000519713
 0.000612154
 0.000698449
 0.000795202
 0.000793359
 0.00070309
 0.000611759
 0.000521289
 0.000425796
 0.000456688
 0.000611961
 0.000764773
 0.000910307
 0.0010578
 0.00106088
 0.000906544
 0.000759449
 0.000608245
 0.000458556
 0.000487896
 0.000703342
 0.000910428
 0.00110508
 0.00131098
 0.00130806
 0.00110856
 0.000908372
 0.000699461
 0.000488966
 0.000521587
 0.000792691
 0.0010574
 0.00130918
 0.00156222
 0.00156202
 0.00130794
 0.00105801
 0.000794424
 0.000520957
 0.000522098
 0.000795067
 0.00105449
 0.00130332
 0.00155973
 0.00155913
 0.00130921
 0.00105258
 0.00079405
 0.000517891
 0.000488348
 0.00070334
 0.000908376
 0.00110894
 0.00130798
 0.00130649
 0.0011081
 0.000909643
 0.000705051
 0.000488031
 0.000456262
 0.000610421
 0.000758497
 0.00090656
 0.00105973
 0.00105394
 0.000909652
 0.000763711
 0.000611965
 0.000456562
 0.000426034
 0.000520864
 0.000612091
 0.000699697
 0.000794539
 0.000792999
 0.000699533
 0.000612406
 0.000520033
 0.000426416
 0.000394834
 0.000427085
 0.000455871
 0.000487936
 0.000518953
 0.000520581
 0.000488045
 0.000453702
 0.000425664
 0.000397345
 0.000403878
 0.000445778
 0.00048601
 0.000532555
 0.000575677
 0.000574236
 0.000531398
 0.000488732
 0.000446296
 0.000403221
 0.000445232
 0.0005722
 0.000701033
 0.00082558
 0.000951779
 0.000956145
 0.00082863
 0.000698656
 0.000572289
 0.000445472
 0.000489132
 0.00070009
 0.00090859
 0.00110604
 0.00130577
 0.00131043
 0.00110814
 0.000907623
 0.000701888
 0.000487942
 0.000527862
 0.000831197
 0.0011071
 0.00138147
 0.00164026
 0.00164395
 0.00137201
 0.00111145
 0.000827921
 0.000527455
 0.000575326
 0.000952923
 0.00130561
 0.00164467
 0.00196835
 0.00197535
 0.00164858
 0.00130923
 0.000953933
 0.000572565
 0.000571241
 0.000953245
 0.00129806
 0.0016491
 0.00197665
 0.00198266
 0.00164913
 0.00130698
 0.000957618
 0.000574602
 0.000532494
 0.000828859
 0.00110349
 0.0013779
 0.00163286
 0.00164282
 0.00138083
 0.00110501
 0.000829052
 0.000528381
 0.000488708
 0.000703264
 0.00091015
 0.0011044
 0.00131278
 0.00130963
 0.0011085
 0.00091467
 0.000703674
 0.00048606
 0.000447699
 0.000573801
 0.000700216
 0.000827178
 0.000949159
 0.000952907
 0.000829598
 0.000702765
 0.000574729
 0.000445789
 0.000401514
 0.000445891
 0.000487815
 0.000531792
 0.000573217
 0.000573221
 0.000528914
 0.000487687
 0.00044557
 0.000403094
 0.000410605
 0.000464167
 0.000517899
 0.000573014
 0.000629864
 0.000628687
 0.000574879
 0.000519443
 0.000465679
 0.000408893
 0.000463837
 0.000628946
 0.000799333
 0.000954681
 0.00111259
 0.00111512
 0.000951816
 0.000795121
 0.000632851
 0.000467149
 0.000518871
 0.000795122
 0.00105686
 0.00130747
 0.0015651
 0.0015662
 0.00130469
 0.00105071
 0.000795888
 0.00052039
 0.000575096
 0.000950426
 0.00131101
 0.00164407
 0.0019757
 0.00197399
 0.00164692
 0.00131631
 0.000955043
 0.000571956
 0.000629145
 0.00111642
 0.0015562
 0.00197164
 0.00238181
 0.00238964
 0.00197729
 0.00156219
 0.00111318
 0.000626767
 0.000629568
 0.00111727
 0.00155853
 0.00197716
 0.00239286
 0.00239448
 0.00198112
 0.00155896
 0.00111534
 0.000633035
 0.000571946
 0.000953448
 0.00131101
 0.00165002
 0.00197496
 0.00197902
 0.00163592
 0.00130862
 0.000954691
 0.00057174
 0.000519313
 0.000795594
 0.00105681
 0.00130624
 0.00155058
 0.00155782
 0.00130667
 0.00105449
 0.000792291
 0.000520875
 0.000461866
 0.000630682
 0.000792317
 0.000954954
 0.00111384
 0.00111363
 0.000952241
 0.00079554
 0.000630723
 0.000465025
 0.000410057
 0.000465428
 0.000518609
 0.000575038
 0.000630877
 0.000630348
 0.000572927
 0.000519159
 0.000463207
 0.000409825
 0.000407925
 0.00046381
 0.00051847
 0.000572948
 0.000629677
 0.000628817
 0.000573267
 0.000518504
 0.000462093
 0.000410282
 0.000464541
 0.000635116
 0.00079807
 0.000952341
 0.00111031
 0.00111088
 0.000953793
 0.000797507
 0.000630364
 0.000462095
 0.00052239
 0.000793642
 0.0010622
 0.00130673
 0.00156173
 0.00156081
 0.00131053
 0.00105946
 0.000791435
 0.000515771
 0.000572062
 0.000959495
 0.0013095
 0.00164505
 0.00197629
 0.00197074
 0.00164288
 0.0013009
 0.000953724
 0.000575447
 0.000626838
 0.00110963
 0.00155835
 0.00197442
 0.00238391
 0.00238971
 0.00197863
 0.00155621
 0.00111342
 0.00063325
 0.000625773
 0.00110878
 0.00156523
 0.00196554
 0.00238719
 0.00238622
 0.0019774
 0.00156662
 0.00112038
 0.000626074
 0.000571928
 0.000951539
 0.00130904
 0.00164457
 0.00196954
 0.00197951
 0.00164136
 0.00130427
 0.000954689
 0.000574093
 0.000519174
 0.000791579
 0.00105431
 0.00130608
 0.00156037
 0.00156185
 0.00130653
 0.00105291
 0.00079073
 0.000517668
 0.000465116
 0.000633418
 0.000791942
 0.000952623
 0.00111024
 0.00111186
 0.000954598
 0.000794102
 0.000633348
 0.000464023
 0.000408094
 0.000463484
 0.000519955
 0.000571333
 0.000629788
 0.000629058
 0.000575838
 0.00051923
 0.000464914
 0.00040887
 0.000403042
 0.000443271
 0.000488115
 0.000530387
 0.000577799
 0.000573595
 0.00053263
 0.000485605
 0.000445771
 0.000405151
 0.000443861
 0.000579211
 0.000699507
 0.000826972
 0.000947234
 0.000956035
 0.000829679
 0.000702387
 0.000574091
 0.000444021
 0.000489083
 0.000702653
 0.000910831
 0.00111116
 0.00131144
 0.00131409
 0.00110712
 0.000908654
 0.000699648
 0.000487439
 0.000527918
 0.000831602
 0.00110382
 0.00137888
 0.00163415
 0.00164022
 0.00137809
 0.00111394
 0.000831092
 0.000528245
 0.000575169
 0.000953535
 0.00130986
 0.00164238
 0.00196952
 0.00197383
 0.00164532
 0.00130644
 0.000960088
 0.000574726
 0.000571763
 0.000954584
 0.00130964
 0.00164624
 0.00197213
 0.00198081
 0.00163829
 0.0013137
 0.000954965
 0.00057228
 0.000532085
 0.000825523
 0.00110555
 0.00137997
 0.00164104
 0.00165523
 0.00137436
 0.0011088
 0.000823541
 0.000530719
 0.000485842
 0.000703711
 0.000905866
 0.00110886
 0.00130815
 0.00130208
 0.00110917
 0.000911506
 0.000705456
 0.000487466
 0.000445288
 0.000575367
 0.000704189
 0.000825532
 0.000950883
 0.000955348
 0.000830614
 0.000700867
 0.000574779
 0.000445389
 0.000403458
 0.000444344
 0.000485855
 0.000532089
 0.000572985
 0.000573094
 0.00052975
 0.000484703
 0.000445805
 0.000402726
 0.000396911
 0.000427978
 0.000457647
 0.000485333
 0.000521582
 0.000520028
 0.000487551
 0.00045542
 0.000427041
 0.000397316
 0.000426499
 0.000520432
 0.000611121
 0.000704689
 0.000791162
 0.000789754
 0.000701916
 0.000611732
 0.000520104
 0.000427441
 0.000454178
 0.000612227
 0.000759473
 0.000913145
 0.00105416
 0.00105574
 0.00090625
 0.000762193
 0.0006149
 0.00045642
 0.000489659
 0.000703713
 0.000904919
 0.00110222
 0.00130443
 0.00130643
 0.00110262
 0.000904477
 0.000699873
 0.000484231
 0.00051715
 0.000792683
 0.0010528
 0.00130468
 0.00155618
 0.00155903
 0.00131165
 0.0010529
 0.000791825
 0.000519764
 0.000517721
 0.000795911
 0.00105442
 0.00131878
 0.00156231
 0.00156112
 0.00130973
 0.00105679
 0.000793718
 0.000522756
 0.000487775
 0.000701576
 0.00090568
 0.00111255
 0.00130606
 0.00130617
 0.00110558
 0.000910991
 0.000702497
 0.000487003
 0.000456847
 0.000614585
 0.000760155
 0.000905316
 0.00105249
 0.00105599
 0.000910257
 0.000760894
 0.000612554
 0.000459476
 0.00042743
 0.000522083
 0.000612304
 0.000702818
 0.00079918
 0.000798406
 0.000699506
 0.000612914
 0.000519649
 0.000427243
 0.000397658
 0.000426934
 0.000458072
 0.000487705
 0.000517579
 0.000516974
 0.000487235
 0.000454502
 0.000427777
 0.000397761
 0.000390519
 0.000411028
 0.000425639
 0.000446048
 0.000466495
 0.000463589
 0.000444358
 0.000426806