# vtk DataFile Version 2.0
Three-D cube surface heat flux and Q display
ASCII
DATASET UNSTRUCTURED_GRID

POINTS 602 FLOAT 
 -0.5 -0.5 -0.5
 -0.4 -0.5 -0.5
 -0.3 -0.5 -0.5
 -0.2 -0.5 -0.5
 -0.1 -0.5 -0.5
 0 -0.5 -0.5
 0.1 -0.5 -0.5
 0.2 -0.5 -0.5
 0.3 -0.5 -0.5
 0.4 -0.5 -0.5
 0.5 -0.5 -0.5
 -0.5 -0.4 -0.5
 -0.4 -0.4 -0.5
 -0.3 -0.4 -0.5
 -0.2 -0.4 -0.5
 -0.1 -0.4 -0.5
 0 -0.4 -0.5
 0.1 -0.4 -0.5
 0.2 -0.4 -0.5
 0.3 -0.4 -0.5
 0.4 -0.4 -0.5
 0.5 -0.4 -0.5
 -0.5 -0.3 -0.5
 -0.4 -0.3 -0.5
 -0.3 -0.3 -0.5
 -0.2 -0.3 -0.5
 -0.1 -0.3 -0.5
 0 -0.3 -0.5
 0.1 -0.3 -0.5
 0.2 -0.3 -0.5
 0.3 -0.3 -0.5
 0.4 -0.3 -0.5
 0.5 -0.3 -0.5
 -0.5 -0.2 -0.5
 -0.4 -0.2 -0.5
 -0.3 -0.2 -0.5
 -0.2 -0.2 -0.5
 -0.1 -0.2 -0.5
 0 -0.2 -0.5
 0.1 -0.2 -0.5
 0.2 -0.2 -0.5
 0.3 -0.2 -0.5
 0.4 -0.2 -0.5
 0.5 -0.2 -0.5
 -0.5 -0.1 -0.5
 -0.4 -0.1 -0.5
 -0.3 -0.1 -0.5
 -0.2 -0.1 -0.5
 -0.1 -0.1 -0.5
 0 -0.1 -0.5
 0.1 -0.1 -0.5
 0.2 -0.1 -0.5
 0.3 -0.1 -0.5
 0.4 -0.1 -0.5
 0.5 -0.1 -0.5
 -0.5 0 -0.5
 -0.4 0 -0.5
 -0.3 0 -0.5
 -0.2 0 -0.5
 -0.1 0 -0.5
 0 0 -0.5
 0.1 0 -0.5
 0.2 0 -0.5
 0.3 0 -0.5
 0.4 0 -0.5
 0.5 0 -0.5
 -0.5 0.1 -0.5
 -0.4 0.1 -0.5
 -0.3 0.1 -0.5
 -0.2 0.1 -0.5
 -0.1 0.1 -0.5
 0 0.1 -0.5
 0.1 0.1 -0.5
 0.2 0.1 -0.5
 0.3 0.1 -0.5
 0.4 0.1 -0.5
 0.5 0.1 -0.5
 -0.5 0.2 -0.5
 -0.4 0.2 -0.5
 -0.3 0.2 -0.5
 -0.2 0.2 -0.5
 -0.1 0.2 -0.5
 0 0.2 -0.5
 0.1 0.2 -0.5
 0.2 0.2 -0.5
 0.3 0.2 -0.5
 0.4 0.2 -0.5
 0.5 0.2 -0.5
 -0.5 0.3 -0.5
 -0.4 0.3 -0.5
 -0.3 0.3 -0.5
 -0.2 0.3 -0.5
 -0.1 0.3 -0.5
 0 0.3 -0.5
 0.1 0.3 -0.5
 0.2 0.3 -0.5
 0.3 0.3 -0.5
 0.4 0.3 -0.5
 0.5 0.3 -0.5
 -0.5 0.4 -0.5
 -0.4 0.4 -0.5
 -0.3 0.4 -0.5
 -0.2 0.4 -0.5
 -0.1 0.4 -0.5
 0 0.4 -0.5
 0.1 0.4 -0.5
 0.2 0.4 -0.5
 0.3 0.4 -0.5
 0.4 0.4 -0.5
 0.5 0.4 -0.5
 -0.5 0.5 -0.5
 -0.4 0.5 -0.5
 -0.3 0.5 -0.5
 -0.2 0.5 -0.5
 -0.1 0.5 -0.5
 0 0.5 -0.5
 0.1 0.5 -0.5
 0.2 0.5 -0.5
 0.3 0.5 -0.5
 0.4 0.5 -0.5
 0.5 0.5 -0.5
 -0.5 -0.5 0.5
 -0.4 -0.5 0.5
 -0.3 -0.5 0.5
 -0.2 -0.5 0.5
 -0.1 -0.5 0.5
 0 -0.5 0.5
 0.1 -0.5 0.5
 0.2 -0.5 0.5
 0.3 -0.5 0.5
 0.4 -0.5 0.5
 0.5 -0.5 0.5
 -0.5 -0.4 0.5
 -0.4 -0.4 0.5
 -0.3 -0.4 0.5
 -0.2 -0.4 0.5
 -0.1 -0.4 0.5
 0 -0.4 0.5
 0.1 -0.4 0.5
 0.2 -0.4 0.5
 0.3 -0.4 0.5
 0.4 -0.4 0.5
 0.5 -0.4 0.5
 -0.5 -0.3 0.5
 -0.4 -0.3 0.5
 -0.3 -0.3 0.5
 -0.2 -0.3 0.5
 -0.1 -0.3 0.5
 0 -0.3 0.5
 0.1 -0.3 0.5
 0.2 -0.3 0.5
 0.3 -0.3 0.5
 0.4 -0.3 0.5
 0.5 -0.3 0.5
 -0.5 -0.2 0.5
 -0.4 -0.2 0.5
 -0.3 -0.2 0.5
 -0.2 -0.2 0.5
 -0.1 -0.2 0.5
 0 -0.2 0.5
 0.1 -0.2 0.5
 0.2 -0.2 0.5
 0.3 -0.2 0.5
 0.4 -0.2 0.5
 0.5 -0.2 0.5
 -0.5 -0.1 0.5
 -0.4 -0.1 0.5
 -0.3 -0.1 0.5
 -0.2 -0.1 0.5
 -0.1 -0.1 0.5
 0 -0.1 0.5
 0.1 -0.1 0.5
 0.2 -0.1 0.5
 0.3 -0.1 0.5
 0.4 -0.1 0.5
 0.5 -0.1 0.5
 -0.5 0 0.5
 -0.4 0 0.5
 -0.3 0 0.5
 -0.2 0 0.5
 -0.1 0 0.5
 0 0 0.5
 0.1 0 0.5
 0.2 0 0.5
 0.3 0 0.5
 0.4 0 0.5
 0.5 0 0.5
 -0.5 0.1 0.5
 -0.4 0.1 0.5
 -0.3 0.1 0.5
 -0.2 0.1 0.5
 -0.1 0.1 0.5
 0 0.1 0.5
 0.1 0.1 0.5
 0.2 0.1 0.5
 0.3 0.1 0.5
 0.4 0.1 0.5
 0.5 0.1 0.5
 -0.5 0.2 0.5
 -0.4 0.2 0.5
 -0.3 0.2 0.5
 -0.2 0.2 0.5
 -0.1 0.2 0.5
 0 0.2 0.5
 0.1 0.2 0.5
 0.2 0.2 0.5
 0.3 0.2 0.5
 0.4 0.2 0.5
 0.5 0.2 0.5
 -0.5 0.3 0.5
 -0.4 0.3 0.5
 -0.3 0.3 0.5
 -0.2 0.3 0.5
 -0.1 0.3 0.5
 0 0.3 0.5
 0.1 0.3 0.5
 0.2 0.3 0.5
 0.3 0.3 0.5
 0.4 0.3 0.5
 0.5 0.3 0.5
 -0.5 0.4 0.5
 -0.4 0.4 0.5
 -0.3 0.4 0.5
 -0.2 0.4 0.5
 -0.1 0.4 0.5
 0 0.4 0.5
 0.1 0.4 0.5
 0.2 0.4 0.5
 0.3 0.4 0.5
 0.4 0.4 0.5
 0.5 0.4 0.5
 -0.5 0.5 0.5
 -0.4 0.5 0.5
 -0.3 0.5 0.5
 -0.2 0.5 0.5
 -0.1 0.5 0.5
 0 0.5 0.5
 0.1 0.5 0.5
 0.2 0.5 0.5
 0.3 0.5 0.5
 0.4 0.5 0.5
 0.5 0.5 0.5
 -0.5 0.5 -0.4
 -0.4 0.5 -0.4
 -0.3 0.5 -0.4
 -0.2 0.5 -0.4
 -0.1 0.5 -0.4
 0 0.5 -0.4
 0.1 0.5 -0.4
 0.2 0.5 -0.4
 0.3 0.5 -0.4
 0.4 0.5 -0.4
 0.5 0.5 -0.4
 -0.5 0.5 -0.3
 -0.4 0.5 -0.3
 -0.3 0.5 -0.3
 -0.2 0.5 -0.3
 -0.1 0.5 -0.3
 0 0.5 -0.3
 0.1 0.5 -0.3
 0.2 0.5 -0.3
 0.3 0.5 -0.3
 0.4 0.5 -0.3
 0.5 0.5 -0.3
 -0.5 0.5 -0.2
 -0.4 0.5 -0.2
 -0.3 0.5 -0.2
 -0.2 0.5 -0.2
 -0.1 0.5 -0.2
 0 0.5 -0.2
 0.1 0.5 -0.2
 0.2 0.5 -0.2
 0.3 0.5 -0.2
 0.4 0.5 -0.2
 0.5 0.5 -0.2
 -0.5 0.5 -0.1
 -0.4 0.5 -0.1
 -0.3 0.5 -0.1
 -0.2 0.5 -0.1
 -0.1 0.5 -0.1
 0 0.5 -0.1
 0.1 0.5 -0.1
 0.2 0.5 -0.1
 0.3 0.5 -0.1
 0.4 0.5 -0.1
 0.5 0.5 -0.1
 -0.5 0.5 0
 -0.4 0.5 0
 -0.3 0.5 0
 -0.2 0.5 0
 -0.1 0.5 0
 0 0.5 0
 0.1 0.5 0
 0.2 0.5 0
 0.3 0.5 0
 0.4 0.5 0
 0.5 0.5 0
 -0.5 0.5 0.1
 -0.4 0.5 0.1
 -0.3 0.5 0.1
 -0.2 0.5 0.1
 -0.1 0.5 0.1
 0 0.5 0.1
 0.1 0.5 0.1
 0.2 0.5 0.1
 0.3 0.5 0.1
 0.4 0.5 0.1
 0.5 0.5 0.1
 -0.5 0.5 0.2
 -0.4 0.5 0.2
 -0.3 0.5 0.2
 -0.2 0.5 0.2
 -0.1 0.5 0.2
 0 0.5 0.2
 0.1 0.5 0.2
 0.2 0.5 0.2
 0.3 0.5 0.2
 0.4 0.5 0.2
 0.5 0.5 0.2
 -0.5 0.5 0.3
 -0.4 0.5 0.3
 -0.3 0.5 0.3
 -0.2 0.5 0.3
 -0.1 0.5 0.3
 0 0.5 0.3
 0.1 0.5 0.3
 0.2 0.5 0.3
 0.3 0.5 0.3
 0.4 0.5 0.3
 0.5 0.5 0.3
 -0.5 0.5 0.4
 -0.4 0.5 0.4
 -0.3 0.5 0.4
 -0.2 0.5 0.4
 -0.1 0.5 0.4
 0 0.5 0.4
 0.1 0.5 0.4
 0.2 0.5 0.4
 0.3 0.5 0.4
 0.4 0.5 0.4
 0.5 0.5 0.4
 -0.5 -0.5 -0.4
 -0.4 -0.5 -0.4
 -0.3 -0.5 -0.4
 -0.2 -0.5 -0.4
 -0.1 -0.5 -0.4
 0 -0.5 -0.4
 0.1 -0.5 -0.4
 0.2 -0.5 -0.4
 0.3 -0.5 -0.4
 0.4 -0.5 -0.4
 0.5 -0.5 -0.4
 -0.5 -0.5 -0.3
 -0.4 -0.5 -0.3
 -0.3 -0.5 -0.3
 -0.2 -0.5 -0.3
 -0.1 -0.5 -0.3
 0 -0.5 -0.3
 0.1 -0.5 -0.3
 0.2 -0.5 -0.3
 0.3 -0.5 -0.3
 0.4 -0.5 -0.3
 0.5 -0.5 -0.3
 -0.5 -0.5 -0.2
 -0.4 -0.5 -0.2
 -0.3 -0.5 -0.2
 -0.2 -0.5 -0.2
 -0.1 -0.5 -0.2
 0 -0.5 -0.2
 0.1 -0.5 -0.2
 0.2 -0.5 -0.2
 0.3 -0.5 -0.2
 0.4 -0.5 -0.2
 0.5 -0.5 -0.2
 -0.5 -0.5 -0.1
 -0.4 -0.5 -0.1
 -0.3 -0.5 -0.1
 -0.2 -0.5 -0.1
 -0.1 -0.5 -0.1
 0 -0.5 -0.1
 0.1 -0.5 -0.1
 0.2 -0.5 -0.1
 0.3 -0.5 -0.1
 0.4 -0.5 -0.1
 0.5 -0.5 -0.1
 -0.5 -0.5 0
 -0.4 -0.5 0
 -0.3 -0.5 0
 -0.2 -0.5 0
 -0.1 -0.5 0
 0 -0.5 0
 0.1 -0.5 0
 0.2 -0.5 0
 0.3 -0.5 0
 0.4 -0.5 0
 0.5 -0.5 0
 -0.5 -0.5 0.1
 -0.4 -0.5 0.1
 -0.3 -0.5 0.1
 -0.2 -0.5 0.1
 -0.1 -0.5 0.1
 0 -0.5 0.1
 0.1 -0.5 0.1
 0.2 -0.5 0.1
 0.3 -0.5 0.1
 0.4 -0.5 0.1
 0.5 -0.5 0.1
 -0.5 -0.5 0.2
 -0.4 -0.5 0.2
 -0.3 -0.5 0.2
 -0.2 -0.5 0.2
 -0.1 -0.5 0.2
 0 -0.5 0.2
 0.1 -0.5 0.2
 0.2 -0.5 0.2
 0.3 -0.5 0.2
 0.4 -0.5 0.2
 0.5 -0.5 0.2
 -0.5 -0.5 0.3
 -0.4 -0.5 0.3
 -0.3 -0.5 0.3
 -0.2 -0.5 0.3
 -0.1 -0.5 0.3
 0 -0.5 0.3
 0.1 -0.5 0.3
 0.2 -0.5 0.3
 0.3 -0.5 0.3
 0.4 -0.5 0.3
 0.5 -0.5 0.3
 -0.5 -0.5 0.4
 -0.4 -0.5 0.4
 -0.3 -0.5 0.4
 -0.2 -0.5 0.4
 -0.1 -0.5 0.4
 0 -0.5 0.4
 0.1 -0.5 0.4
 0.2 -0.5 0.4
 0.3 -0.5 0.4
 0.4 -0.5 0.4
 0.5 -0.5 0.4
 -0.5 -0.4 -0.4
 -0.5 -0.3 -0.4
 -0.5 -0.2 -0.4
 -0.5 -0.1 -0.4
 -0.5 0 -0.4
 -0.5 0.1 -0.4
 -0.5 0.2 -0.4
 -0.5 0.3 -0.4
 -0.5 0.4 -0.4
 -0.5 -0.4 -0.3
 -0.5 -0.3 -0.3
 -0.5 -0.2 -0.3
 -0.5 -0.1 -0.3
 -0.5 0 -0.3
 -0.5 0.1 -0.3
 -0.5 0.2 -0.3
 -0.5 0.3 -0.3
 -0.5 0.4 -0.3
 -0.5 -0.4 -0.2
 -0.5 -0.3 -0.2
 -0.5 -0.2 -0.2
 -0.5 -0.1 -0.2
 -0.5 0 -0.2
 -0.5 0.1 -0.2
 -0.5 0.2 -0.2
 -0.5 0.3 -0.2
 -0.5 0.4 -0.2
 -0.5 -0.4 -0.1
 -0.5 -0.3 -0.1
 -0.5 -0.2 -0.1
 -0.5 -0.1 -0.1
 -0.5 0 -0.1
 -0.5 0.1 -0.1
 -0.5 0.2 -0.1
 -0.5 0.3 -0.1
 -0.5 0.4 -0.1
 -0.5 -0.4 0
 -0.5 -0.3 0
 -0.5 -0.2 0
 -0.5 -0.1 0
 -0.5 0 0
 -0.5 0.1 0
 -0.5 0.2 0
 -0.5 0.3 0
 -0.5 0.4 0
 -0.5 -0.4 0.1
 -0.5 -0.3 0.1
 -0.5 -0.2 0.1
 -0.5 -0.1 0.1
 -0.5 0 0.1
 -0.5 0.1 0.1
 -0.5 0.2 0.1
 -0.5 0.3 0.1
 -0.5 0.4 0.1
 -0.5 -0.4 0.2
 -0.5 -0.3 0.2
 -0.5 -0.2 0.2
 -0.5 -0.1 0.2
 -0.5 0 0.2
 -0.5 0.1 0.2
 -0.5 0.2 0.2
 -0.5 0.3 0.2
 -0.5 0.4 0.2
 -0.5 -0.4 0.3
 -0.5 -0.3 0.3
 -0.5 -0.2 0.3
 -0.5 -0.1 0.3
 -0.5 0 0.3
 -0.5 0.1 0.3
 -0.5 0.2 0.3
 -0.5 0.3 0.3
 -0.5 0.4 0.3
 -0.5 -0.4 0.4
 -0.5 -0.3 0.4
 -0.5 -0.2 0.4
 -0.5 -0.1 0.4
 -0.5 0 0.4
 -0.5 0.1 0.4
 -0.5 0.2 0.4
 -0.5 0.3 0.4
 -0.5 0.4 0.4
 0.5 -0.4 -0.4
 0.5 -0.3 -0.4
 0.5 -0.2 -0.4
 0.5 -0.1 -0.4
 0.5 0 -0.4
 0.5 0.1 -0.4
 0.5 0.2 -0.4
 0.5 0.3 -0.4
 0.5 0.4 -0.4
 0.5 -0.4 -0.3
 0.5 -0.3 -0.3
 0.5 -0.2 -0.3
 0.5 -0.1 -0.3
 0.5 0 -0.3
 0.5 0.1 -0.3
 0.5 0.2 -0.3
 0.5 0.3 -0.3
 0.5 0.4 -0.3
 0.5 -0.4 -0.2
 0.5 -0.3 -0.2
 0.5 -0.2 -0.2
 0.5 -0.1 -0.2
 0.5 0 -0.2
 0.5 0.1 -0.2
 0.5 0.2 -0.2
 0.5 0.3 -0.2
 0.5 0.4 -0.2
 0.5 -0.4 -0.1
 0.5 -0.3 -0.1
 0.5 -0.2 -0.1
 0.5 -0.1 -0.1
 0.5 0 -0.1
 0.5 0.1 -0.1
 0.5 0.2 -0.1
 0.5 0.3 -0.1
 0.5 0.4 -0.1
 0.5 -0.4 0
 0.5 -0.3 0
 0.5 -0.2 0
 0.5 -0.1 0
 0.5 0 0
 0.5 0.1 0
 0.5 0.2 0
 0.5 0.3 0
 0.5 0.4 0
 0.5 -0.4 0.1
 0.5 -0.3 0.1
 0.5 -0.2 0.1
 0.5 -0.1 0.1
 0.5 0 0.1
 0.5 0.1 0.1
 0.5 0.2 0.1
 0.5 0.3 0.1
 0.5 0.4 0.1
 0.5 -0.4 0.2
 0.5 -0.3 0.2
 0.5 -0.2 0.2
 0.5 -0.1 0.2
 0.5 0 0.2
 0.5 0.1 0.2
 0.5 0.2 0.2
 0.5 0.3 0.2
 0.5 0.4 0.2
 0.5 -0.4 0.3
 0.5 -0.3 0.3
 0.5 -0.2 0.3
 0.5 -0.1 0.3
 0.5 0 0.3
 0.5 0.1 0.3
 0.5 0.2 0.3
 0.5 0.3 0.3
 0.5 0.4 0.3
 0.5 -0.4 0.4
 0.5 -0.3 0.4
 0.5 -0.2 0.4
 0.5 -0.1 0.4
 0.5 0 0.4
 0.5 0.1 0.4
 0.5 0.2 0.4
 0.5 0.3 0.4
 0.5 0.4 0.4

CELLS 600 3000
 4 0 1 12 11
 4 1 2 13 12
 4 2 3 14 13
 4 3 4 15 14
 4 4 5 16 15
 4 5 6 17 16
 4 6 7 18 17
 4 7 8 19 18
 4 8 9 20 19
 4 9 10 21 20
 4 11 12 23 22
 4 12 13 24 23
 4 13 14 25 24
 4 14 15 26 25
 4 15 16 27 26
 4 16 17 28 27
 4 17 18 29 28
 4 18 19 30 29
 4 19 20 31 30
 4 20 21 32 31
 4 22 23 34 33
 4 23 24 35 34
 4 24 25 36 35
 4 25 26 37 36
 4 26 27 38 37
 4 27 28 39 38
 4 28 29 40 39
 4 29 30 41 40
 4 30 31 42 41
 4 31 32 43 42
 4 33 34 45 44
 4 34 35 46 45
 4 35 36 47 46
 4 36 37 48 47
 4 37 38 49 48
 4 38 39 50 49
 4 39 40 51 50
 4 40 41 52 51
 4 41 42 53 52
 4 42 43 54 53
 4 44 45 56 55
 4 45 46 57 56
 4 46 47 58 57
 4 47 48 59 58
 4 48 49 60 59
 4 49 50 61 60
 4 50 51 62 61
 4 51 52 63 62
 4 52 53 64 63
 4 53 54 65 64
 4 55 56 67 66
 4 56 57 68 67
 4 57 58 69 68
 4 58 59 70 69
 4 59 60 71 70
 4 60 61 72 71
 4 61 62 73 72
 4 62 63 74 73
 4 63 64 75 74
 4 64 65 76 75
 4 66 67 78 77
 4 67 68 79 78
 4 68 69 80 79
 4 69 70 81 80
 4 70 71 82 81
 4 71 72 83 82
 4 72 73 84 83
 4 73 74 85 84
 4 74 75 86 85
 4 75 76 87 86
 4 77 78 89 88
 4 78 79 90 89
 4 79 80 91 90
 4 80 81 92 91
 4 81 82 93 92
 4 82 83 94 93
 4 83 84 95 94
 4 84 85 96 95
 4 85 86 97 96
 4 86 87 98 97
 4 88 89 100 99
 4 89 90 101 100
 4 90 91 102 101
 4 91 92 103 102
 4 92 93 104 103
 4 93 94 105 104
 4 94 95 106 105
 4 95 96 107 106
 4 96 97 108 107
 4 97 98 109 108
 4 99 100 111 110
 4 100 101 112 111
 4 101 102 113 112
 4 102 103 114 113
[...]
CELL_DATA 600
FIELD DOMAIN 2
SurfaceElement_HEAT_FLUX_q 1 600 FLOAT
 0.646582
 0.611409
 0.600881
 0.605296
 0.564393
 0.573068
 0.594319
 0.617836
 0.621887
 0.66967
 0.63984
 0.621606
 0.593954
 0.592704
 0.582393
 0.561539
 0.593629
 0.596513
 0.60935
 0.637958
 0.650805
 0.636391
 0.613883
 0.613553
 0.559358
 0.598812
 0.596004
 0.60349
 0.624954
 0.635288
 0.622058
 0.621945
 0.614507
 0.601757
 0.573956
 0.580374
 0.592157
 0.57019
 0.608682
 0.640546
 0.674811
 0.61948
 0.594667
 0.581972
 0.584072
 0.597541
 0.574416
 0.59417
 0.635298
 0.651317
 0.649501
 0.622196
 0.588686
 0.583176
 0.57589
 0.576123
 0.573057
 0.609604
 0.607503
 0.642003
 0.637556
 0.602454
 0.584184
 0.614665
 0.571915
 0.562596
 0.590154
 0.591307
 0.594671
 0.652
 0.642416
 0.613069
 0.603333
 0.626539
 0.602197
 0.576739
 0.581269
 0.606654
 0.610247
 0.655757
 0.616883
 0.618618
 0.585923
 0.566386
 0.580639
 0.5696
 0.565152
 0.592717
 0.596552
 0.645561
 0.632654
 0.630557
 0.591503
 0.573844
 0.585865
 0.549419
 0.603764
 0.587742
 0.630207
 0.6616
 0.632327
 0.626731
 0.583961
 0.58908
 0.579922
 0.589983
 0.580327
 0.591722
 0.61951
 0.654404
 0.610347
 0.606086
 0.602318
 0.587912
 0.560379
 0.577886
 0.566727
 0.610539
 0.593619
 0.632426
 0.646878
 0.639882
 0.614655
 0.579852
 0.587866
 0.558419
 0.586721
 0.6054
 0.638339
 0.667045
 0.621007
 0.587958
 0.574525
 0.591199
 0.584529
 0.590396
 0.595563
 0.576481
 0.631828
 0.651566
 0.660842
 0.621937
 0.595729
 0.556459
 0.562423
 0.570351
 0.572559
 0.601938
 0.608861
 0.628736
 0.654078
 0.596197
 0.608496
 0.551818
 0.575152
 0.579022
 0.553427
 0.602929
 0.626558
 0.660606
 0.653953
 0.601726
 0.597493
 0.58873
 0.563351
 0.56087
 0.564195
 0.59678
 0.618573
 0.64774
 0.616135
 0.603126
 0.597749
 0.57303
 0.588503
 0.576937
 0.574382
 0.598618
 0.624319
 0.670391
 0.660707
 0.62306
 0.62761
 0.591669
 0.560746
 0.559347
 0.581625
 0.599155
 0.617268
 0.628686
 0.650719
 0.63846
 0.578942
 0.599576
 0.600725
 0.566978
 0.55099
 0.580365
 0.630389
 0.665095
 0
 0
 0
 0
 0
 0
 0
 0
 0
 0
 0
 0
 0
 0
 0
 0
 0
 0
 0
 0
 0
 0
 0
 0
 0
 0
 0
 0
 0
 0
 0
 0
 0
 0
 0
 0
 0
 0
 0
 0
 0
 0
 0
 0
 0
 0
 0
 0
 0
 0
 0
 0
 0
 0
 0
 0
 0
 0
 0
 0
 0
 0
 0
 0
 0
 0
 0
 0
 0
 0
 0
 0
 0
 0
 0
 0
 0
 0
 0
 0
 0
 0
 0
 0
 0
 0
 0
 0
 0
 0
 0
 0
 0
 0
 0
 0
 0
 0
 0
 0
 0
 0
 0
 0
 0
 0
 0
 0
 0
 0
 0
 0
 0
 0
 0
 0
 0
 0
 0
 0
 0
 0
 0
 0
 0
 0
 0
 0
 0
 0
 0
 0
 0
 0
 0
 0
 0
 0
 0
 0
 0
 0
 0
 0
 0
 0
 0
 0
 0
 0
 0
 0
 0
 0
 0
 0
 0
 0
 0
 0
 0
 0
 0
 0
 0
 0
 0
 0
 0
 0
 0
 0
 0
 0
 0
 0
 0
 0
 0
 0
 0
 0
 0
 0
 0
 0
 0
 0
 0
 0
 0
 0
 0
 0
 0
 0
 0
 0
 0
 0
 -0.663063
 -0.65205
 -0.620462
 -0.624131
 -0.643636
 -0.648826
 -0.634145
 -0.665277
 -0.659067
 -0.63983
 -0.613242
 -0.62083
 -0.645788
 -0.609221
 -0.623274
 -0.61811
 -0.608463
 -0.611862
 -0.614249
 -0.632703
 -0.569261
 -0.611489
 -0.59828
 -0.591706
 -0.592882
 -0.580939
 -0.603375
 -0.602117
 -0.624298
 -0.588192
 -0.580023
 -0.572556
 -0.611235
 -0.577506
 -0.558885
 -0.594214
 -0.572366
 -0.597683
 -0.591116
 -0.568809
 -0.572949
 -0.571796
 -0.577435
 -0.589169
 -0.584716
 -0.571484
 -0.595254
 -0.568652
 -0.583313
 -0.581841
 -0.57109
 -0.591884
 -0.566726
 -0.597816
 -0.557324
 -0.561903
 -0.587452
 -0.582245
 -0.558955
 -0.585199
 -0.572687
 -0.601676
 -0.569003
 -0.573267
 -0.574965
 -0.567903
 -0.564452
 -0.59808
 -0.571407
 -0.610998
 -0.58455
 -0.588481
 -0.597147
 -0.605838
 -0.601539
 -0.591132
 -0.571261
 -0.623834
 -0.609083
 -0.616713
 -0.609134
 -0.65036
 -0.628177
 -0.611374
 -0.652628
 -0.618813
 -0.610263
 -0.625337
 -0.627013
 -0.619328
 -0.6784
 -0.664279
 -0.657323
 -0.642199
 -0.646976
 -0.668522
 -0.65443
 -0.668408
 -0.647332
 -0.637285
 -0.661344
 -0.631945
 -0.632977
 -0.646753
 -0.66523
 -0.639442
 -0.6596
 -0.646868
 -0.646565
 -0.649774
 -0.611949
 -0.627334
 -0.639706
 -0.607394
 -0.605208
 -0.616039
 -0.624025
 -0.639948
 -0.651675
 -0.642037
 -0.586268
 -0.625863
 -0.604449
 -0.591515
 -0.581258
 -0.606313
 -0.600001
 -0.614512
 -0.611691
 -0.619716
 -0.590702
 -0.588595
 -0.573094
 -0.596823
 -0.578475
 -0.574564
 -0.588276
 -0.60418
 -0.586632
 -0.571703
 -0.557152
 -0.5716
 -0.579468
 -0.603022
 -0.578626
 -0.576898
 -0.577515
 -0.602894
 -0.562071
 -0.560754
 -0.571879
 -0.580952
 -0.584573
 -0.557162
 -0.569916
 -0.564727
 -0.564899
 -0.5522
 -0.552252
 -0.562881
 -0.590393
 -0.562235
 -0.585453
 -0.591911
 -0.575727
 -0.561729
 -0.596485
 -0.553453
 -0.587458
 -0.57689
 -0.580084
 -0.561423
 -0.60909
 -0.579063
 -0.594387
 -0.604661
 -0.606151
 -0.584124
 -0.593658
 -0.608437
 -0.616743
 -0.635352
 -0.617927
 -0.634546
 -0.597008
 -0.624898
 -0.617542
 -0.616238
 -0.62078
 -0.617513
 -0.614755
 -0.613819
 -0.654172
 -0.661201
 -0.636406
 -0.651414
 -0.652003
 -0.644538
 -0.656514
 -0.646883

SurfaceElement_HEAT_Q 1 600 FLOAT 
 0.00646582
 0.00611409
 0.00600881
 0.00605296
 0.00564393
 0.00573068
 0.00594319
 0.00617836
 0.00621887
 0.0066967
 0.0063984
 0.00621606
 0.00593954
 0.00592704
 0.00582393
 0.00561539
 0.00593629
 0.00596513
 0.0060935
 0.00637958
 0.00650805
 0.00636391
 0.00613883
 0.00613553
 0.00559358
 0.00598812
 0.00596004
 0.0060349
 0.00624954
 0.00635288
 0.00622058
 0.00621945
 0.00614507
 0.00601757
 0.00573956
 0.00580374
 0.00592157
 0.0057019
 0.00608682
 0.00640546
 0.00674811
 0.0061948
 0.00594667
 0.00581972
 0.00584072
 0.00597541
 0.00574416
 0.0059417
 0.00635298
 0.00651317
 0.00649501
 0.00622196
 0.00588686
 0.00583176
 0.0057589
 0.00576123
 0.00573057
 0.00609604
 0.00607503
 0.00642003
 0.00637556
 0.00602454
 0.00584184
 0.00614665
 0.00571915
 0.00562596
 0.00590154
 0.00591307
 0.00594671
 0.00652
 0.00642416
 0.00613069
 0.00603333
 0.00626539
 0.00602197
 0.00576739
 0.00581269
 0.00606654
 0.00610247
 0.00655757
 0.00616883
 0.00618618
 0.00585923
 0.00566386
 0.00580639
 0.005696
 0.00565152
 0.00592717
 0.00596552
 0.00645561
 0.00632654
 0.00630557
 0.00591503
 0.00573844
 0.00585865
 0.00549419
 0.00603764
 0.00587742
 0.00630207
 0.006616
 0.00632327
 0.00626731
 0.00583961
 0.0058908
 0.00579922
 0.00589983
 0.00580327
 0.00591722
 0.0061951
 0.00654404
 0.00610347
 0.00606086
 0.00602318
 0.00587912
 0.00560379
 0.00577886
 0.00566727
 0.00610539
 0.00593619
 0.00632426
 0.00646878
 0.00639882
 0.00614655
 0.00579852
 0.00587866
 0.00558419
 0.00586721
 0.006054
 0.00638339
 0.00667045
 0.00621007
 0.00587958
 0.00574525
 0.00591199
 0.00584529
 0.00590396
 0.00595563
 0.00576481
 0.00631828
 0.00651566
 0.00660842
 0.00621937
 0.00595729
 0.00556459
 0.00562423
 0.00570351
 0.00572559
 0.00601938
 0.00608861
 0.00628736
 0.00654078
 0.00596197
 0.00608496
 0.00551818
 0.00575152
 0.00579022
 0.00553427
 0.00602929
 0.00626558
 0.00660606
 0.00653953
 0.00601726
 0.00597493
 0.0058873
 0.00563351
 0.0056087
 0.00564195
 0.0059678
 0.00618573
 0.0064774
 0.00616135
 0.00603126
 0.00597749
 0.0057303
 0.00588503
 0.00576937
 0.00574382
 0.00598618
 0.00624319
 0.00670391
 0.00660707
 0.0062306
 0.0062761
 0.00591669
 0.00560746
 0.00559347
 0.00581625
 0.00599155
 0.00617268
 0.00628686
 0.00650719
 0.0063846
 0.00578942
 0.00599576
 0.00600725
 0.00566978
 0.0055099
 0.00580365
 0.00630389
 0.00665095
 0
 0
 0
 0
 0
 0
 0
 0
 0
 0
 0
 0
 0
 0
 0
 0
 0
 0
 0
 0
 0
 0
 0
 0
 0
 0
 0
 0
 0
 0
 0
 0
 0
 0
 0
 0
 0
 0
 0
 0
 0
 0
 0
 0
 0
 0
 0
 0
 0
 0
 0
 0
 0
 0
 0
 0
 0
 0
 0
 0
 0
 0
 0
 0
 0
 0
 0
 0
 0
 0
 0
 0
 0
 0
 0
 0
 0
 0
 0
 0
 0
 0
 0
 0
 0
 0
 0
 0
 0
 0
 0
 0
 0
 0
 0
 0
 0
 0
 0
 0
 0
 0
 0
 0
 0
 0
 0
 0
 0
 0
 0
 0
 0
 0
 0
 0
 0
 0
 0
 0
 0
 0
 0
 0
 0
 0
 0
 0
 0
 0
 0
 0
 0
 0
 0
 0
 0
 0
 0
 0
 0
 0
 0
 0
 0
 0
 0
 0
 0
 0
 0
 0
 0
 0
 0
 0
 0
 0
 0
 0
 0
 0
 0
 0
 0
 0
 0
 0
 0
 0
 0
 0
 0
 0
 0
 0
 0
 0
 0
 0
 0
 0
 0
 0
 0
 0
 0
 0
 0
 0
 0
 0
 0
 0
 0
 0
 0
 0
 0
 0
 -0.00663063
 -0.0065205
 -0.00620462
 -0.00624131
 -0.00643636
 -0.00648826
 -0.00634145
 -0.00665277
 -0.00659067
 -0.0063983
 -0.00613242
 -0.0062083
 -0.00645788
 -0.00609221
 -0.00623274
 -0.0061811
 -0.00608463
 -0.00611862
 -0.00614249
 -0.00632703
 -0.00569261
 -0.00611489
 -0.0059828
 -0.00591706
 -0.00592882
 -0.00580939
 -0.00603375
 -0.00602117
 -0.00624298
 -0.00588192
 -0.00580023
 -0.00572556
 -0.00611235
 -0.00577506
 -0.00558885
 -0.00594214
 -0.00572366
 -0.00597683
 -0.00591116
 -0.00568809
 -0.00572949
 -0.00571796
 -0.00577435
 -0.00589169
 -0.00584716
 -0.00571484
 -0.00595254
 -0.00568652
 -0.00583313
 -0.00581841
 -0.0057109
 -0.00591884
 -0.00566726
 -0.00597816
 -0.00557324
 -0.00561903
 -0.00587452
 -0.00582245
 -0.00558955
 -0.00585199
 -0.00572687
 -0.00601676
 -0.00569003
 -0.00573267
 -0.00574965
 -0.00567903
 -0.00564452
 -0.0059808
 -0.00571407
 -0.00610998
 -0.0058455
 -0.00588481
 -0.00597147
 -0.00605838
 -0.00601539
 -0.00591132
 -0.00571261
 -0.00623834
 -0.00609083
 -0.00616713
 -0.00609134
 -0.0065036
 -0.00628177
 -0.00611374
 -0.00652628
 -0.00618813
 -0.00610263
 -0.00625337
 -0.00627013
 -0.00619328
 -0.006784
 -0.00664279
 -0.00657323
 -0.00642199
 -0.00646976
 -0.00668522
 -0.0065443
 -0.00668408
 -0.00647332
 -0.00637285
 -0.00661344
 -0.00631945
 -0.00632977
 -0.00646753
 -0.0066523
 -0.00639442
 -0.006596
 -0.00646868
 -0.00646565
 -0.00649774
 -0.00611949
 -0.00627334
 -0.00639706
 -0.00607394
 -0.00605208
 -0.00616039
 -0.00624025
 -0.00639948
 -0.00651675
 -0.00642037
 -0.00586268
 -0.00625863
 -0.00604449
 -0.00591515
 -0.00581258
 -0.00606313
 -0.00600001
 -0.00614512
 -0.00611691
 -0.00619716
 -0.00590702
 -0.00588595
 -0.00573094
 -0.00596823
 -0.00578475
 -0.00574564
 -0.00588276
 -0.0060418
 -0.00586632
 -0.00571703
 -0.00557152
 -0.005716
 -0.00579468
 -0.00603022
 -0.00578626
 -0.00576898
 -0.00577515
 -0.00602894
 -0.00562071
 -0.00560754
 -0.00571879
 -0.00580952
 -0.00584573
 -0.00557162
 -0.00569916
 -0.00564727
 -0.00564899
 -0.005522
 -0.00552252
 -0.00562881
 -0.00590393
 -0.00562235
 -0.00585453
 -0.00591911
 -0.00575727
 -0.00561729
 -0.00596485
 -0.00553453
 -0.00587458
 -0.0057689
 -0.00580084
 -0.00561423
 -0.0060909
 -0.00579063
 -0.00594387
 -0.00604661
 -0.00606151
 -0.00584124
 -0.00593658
 -0.00608437
 -0.00616743
 -0.00635352
 -0.00617927
 -0.00634546
 -0.00597008
 -0.00624898
 -0.00617542
 -0.00616238
 -0.0062078
 -0.00617513
 -0.00614755
 -0.00613819
 -0.00654172
 -0.00661201
 -0.00636406
 -0.00651414
 -0.00652003
 -0.00644538
 -0.00656514
 -0.00646883
