# vtk DataFile Version 2.0
Three-D cube surface heat flux and Q display
ASCII
DATASET UNSTRUCTURED_GRID

POINTS 602 FLOAT 
 -0.5 -0.5 -0.5
 -0.4 -0.5 -0.5
 -0.3 -0.5 -0.5
 -0.2 -0.5 -0.5
 -0.1 -0.5 -0.5
 0 -0.5 -0.5
 0.1 -0.5 -0.5
 0.2 -0.5 -0.5
 0.3 -0.5 -0.5
 0.4 -0.5 -0.5
 0.5 -0.5 -0.5
 -0.5 -0.4 -0.5
 -0.4 -0.4 -0.5
 -0.3 -0.4 -0.5
 -0.2 -0.4 -0.5
 -0.1 -0.4 -0.5
 0 -0.4 -0.5
 0.1 -0.4 -0.5
 0.2 -0.4 -0.5
 0.3 -0.4 -0.5
 0.4 -0.4 -0.5
 0.5 -0.4 -0.5
 -0.5 -0.3 -0.5
 -0.4 -0.3 -0.5
 -0.3 -0.3 -0.5
 -0.2 -0.3 -0.5
 -0.1 -0.3 -0.5
 0 -0.3 -0.5
 0.1 -0.3 -0.5
 0.2 -0.3 -0.5
 0.3 -0.3 -0.5
 0.4 -0.3 -0.5
 0.5 -0.3 -0.5
 -0.5 -0.2 -0.5
 -0.4 -0.2 -0.5
 -0.3 -0.2 -0.5
 -0.2 -0.2 -0.5
 -0.1 -0.2 -0.5
 0 -0.2 -0.5
 0.1 -0.2 -0.5
 0.2 -0.2 -0.5
 0.3 -0.2 -0.5
 0.4 -0.2 -0.5
 0.5 -0.2 -0.5
 -0.5 -0.1 -0.5
 -0.4 -0.1 -0.5
 -0.3 -0.1 -0.5
 -0.2 -0.1 -0.5
 -0.1 -0.1 -0.5
 0 -0.1 -0.5
 0.1 -0.1 -0.5
 0.2 -0.1 -0.5
 0.3 -0.1 -0.5
 0.4 -0.1 -0.5
 0.5 -0.1 -0.5
 -0.5 0 -0.5
 -0.4 0 -0.5
 -0.3 0 -0.5
 -0.2 0 -0.5
 -0.1 0 -0.5
 0 0 -0.5
 0.1 0 -0.5
 0.2 0 -0.5
 0.3 0 -0.5
 0.4 0 -0.5
 0.5 0 -0.5
 -0.5 0.1 -0.5
 -0.4 0.1 -0.5
 -0.3 0.1 -0.5
 -0.2 0.1 -0.5
 -0.1 0.1 -0.5
 0 0.1 -0.5
 0.1 0.1 -0.5
 0.2 0.1 -0.5
 0.3 0.1 -0.5
 0.4 0.1 -0.5
 0.5 0.1 -0.5
 -0.5 0.2 -0.5
 -0.4 0.2 -0.5
 -0.3 0.2 -0.5
 -0.2 0.2 -0.5
 -0.1 0.2 -0.5
 0 0.2 -0.5
 0.1 0.2 -0.5
 0.2 0.2 -0.5
 0.3 0.2 -0.5
 0.4 0.2 -0.5
 0.5 0.2 -0.5
 -0.5 0.3 -0.5
 -0.4 0.3 -0.5
 -0.3 0.3 -0.5
 -0.2 0.3 -0.5
 -0.1 0.3 -0.5
 0 0.3 -0.5
 0.1 0.3 -0.5
 0.2 0.3 -0.5
 0.3 0.3 -0.5
 0.4 0.3 -0.5
 0.5 0.3 -0.5
 -0.5 0.4 -0.5
 -0.4 0.4 -0.5
 -0.3 0.4 -0.5
 -0.2 0.4 -0.5
 -0.1 0.4 -0.5
 0 0.4 -0.5
 0.1 0.4 -0.5
 0.2 0.4 -0.5
 0.3 0.4 -0.5
 0.4 0.4 -0.5
 0.5 0.4 -0.5
 -0.5 0.5 -0.5
 -0.4 0.5 -0.5
 -0.3 0.5 -0.5
 -0.2 0.5 -0.5
 -0.1 0.5 -0.5
 0 0.5 -0.5
 0.1 0.5 -0.5
 0.2 0.5 -0.5
 0.3 0.5 -0.5
 0.4 0.5 -0.5
 0.5 0.5 -0.5
 -0.5 -0.5 0.5
 -0.4 -0.5 0.5
 -0.3 -0.5 0.5
 -0.2 -0.5 0.5
 -0.1 -0.5 0.5
 0 -0.5 0.5
 0.1 -0.5 0.5
 0.2 -0.5 0.5
 0.3 -0.5 0.5
 0.4 -0.5 0.5
 0.5 -0.5 0.5
 -0.5 -0.4 0.5
 -0.4 -0.4 0.5
 -0.3 -0.4 0.5
 -0.2 -0.4 0.5
 -0.1 -0.4 0.5
 0 -0.4 0.5
 0.1 -0.4 0.5
 0.2 -0.4 0.5
 0.3 -0.4 0.5
 0.4 -0.4 0.5
 0.5 -0.4 0.5
 -0.5 -0.3 0.5
 -0.4 -0.3 0.5
 -0.3 -0.3 0.5
 -0.2 -0.3 0.5
 -0.1 -0.3 0.5
 0 -0.3 0.5
 0.1 -0.3 0.5
 0.2 -0.3 0.5
 0.3 -0.3 0.5
 0.4 -0.3 0.5
 0.5 -0.3 0.5
 -0.5 -0.2 0.5
 -0.4 -0.2 0.5
 -0.3 -0.2 0.5
 -0.2 -0.2 0.5
 -0.1 -0.2 0.5
 0 -0.2 0.5
 0.1 -0.2 0.5
 0.2 -0.2 0.5
 0.3 -0.2 0.5
 0.4 -0.2 0.5
 0.5 -0.2 0.5
 -0.5 -0.1 0.5
 -0.4 -0.1 0.5
 -0.3 -0.1 0.5
 -0.2 -0.1 0.5
 -0.1 -0.1 0.5
 0 -0.1 0.5
 0.1 -0.1 0.5
 0.2 -0.1 0.5
 0.3 -0.1 0.5
 0.4 -0.1 0.5
 0.5 -0.1 0.5
 -0.5 0 0.5
 -0.4 0 0.5
 -0.3 0 0.5
 -0.2 0 0.5
 -0.1 0 0.5
 0 0 0.5
 0.1 0 0.5
 0.2 0 0.5
 0.3 0 0.5
 0.4 0 0.5
 0.5 0 0.5
 -0.5 0.1 0.5
 -0.4 0.1 0.5
 -0.3 0.1 0.5
 -0.2 0.1 0.5
 -0.1 0.1 0.5
 0 0.1 0.5
 0.1 0.1 0.5
 0.2 0.1 0.5
 0.3 0.1 0.5
 0.4 0.1 0.5
 0.5 0.1 0.5
 -0.5 0.2 0.5
 -0.4 0.2 0.5
 -0.3 0.2 0.5
 -0.2 0.2 0.5
 -0.1 0.2 0.5
 0 0.2 0.5
 0.1 0.2 0.5
 0.2 0.2 0.5
 0.3 0.2 0.5
 0.4 0.2 0.5
 0.5 0.2 0.5
 -0.5 0.3 0.5
 -0.4 0.3 0.5
 -0.3 0.3 0.5
 -0.2 0.3 0.5
 -0.1 0.3 0.5
 0 0.3 0.5
 0.1 0.3 0.5
 0.2 0.3 0.5
 0.3 0.3 0.5
 0.4 0.3 0.5
 0.5 0.3 0.5
 -0.5 0.4 0.5
 -0.4 0.4 0.5
 -0.3 0.4 0.5
 -0.2 0.4 0.5
 -0.1 0.4 0.5
 0 0.4 0.5
 0.1 0.4 0.5
 0.2 0.4 0.5
 0.3 0.4 0.5
 0.4 0.4 0.5
 0.5 0.4 0.5
 -0.5 0.5 0.5
 -0.4 0.5 0.5
 -0.3 0.5 0.5
 -0.2 0.5 0.5
 -0.1 0.5 0.5
 0 0.5 0.5
 0.1 0.5 0.5
 0.2 0.5 0.5
 0.3 0.5 0.5
 0.4 0.5 0.5
 0.5 0.5 0.5
 -0.5 0.5 -0.4
 -0.4 0.5 -0.4
 -0.3 0.5 -0.4
 -0.2 0.5 -0.4
 -0.1 0.5 -0.4
 0 0.5 -0.4
 0.1 0.5 -0.4
 0.2 0.5 -0.4
 0.3 0.5 -0.4
 0.4 0.5 -0.4
 0.5 0.5 -0.4
 -0.5 0.5 -0.3
 -0.4 0.5 -0.3
 -0.3 0.5 -0.3
 -0.2 0.5 -0.3
 -0.1 0.5 -0.3
 0 0.5 -0.3
 0.1 0.5 -0.3
 0.2 0.5 -0.3
 0.3 0.5 -0.3
 0.4 0.5 -0.3
 0.5 0.5 -0.3
 -0.5 0.5 -0.2
 -0.4 0.5 -0.2
 -0.3 0.5 -0.2
 -0.2 0.5 -0.2
 -0.1 0.5 -0.2
 0 0.5 -0.2
 0.1 0.5 -0.2
 0.2 0.5 -0.2
 0.3 0.5 -0.2
 0.4 0.5 -0.2
 0.5 0.5 -0.2
 -0.5 0.5 -0.1
 -0.4 0.5 -0.1
 -0.3 0.5 -0.1
 -0.2 0.5 -0.1
 -0.1 0.5 -0.1
 0 0.5 -0.1
 0.1 0.5 -0.1
 0.2 0.5 -0.1
 0.3 0.5 -0.1
 0.4 0.5 -0.1
 0.5 0.5 -0.1
 -0.5 0.5 0
 -0.4 0.5 0
 -0.3 0.5 0
 -0.2 0.5 0
 -0.1 0.5 0
 0 0.5 0
 0.1 0.5 0
 0.2 0.5 0
 0.3 0.5 0
 0.4 0.5 0
 0.5 0.5 0
 -0.5 0.5 0.1
 -0.4 0.5 0.1
 -0.3 0.5 0.1
 -0.2 0.5 0.1
 -0.1 0.5 0.1
 0 0.5 0.1
 0.1 0.5 0.1
 0.2 0.5 0.1
 0.3 0.5 0.1
 0.4 0.5 0.1
 0.5 0.5 0.1
 -0.5 0.5 0.2
 -0.4 0.5 0.2
 -0.3 0.5 0.2
 -0.2 0.5 0.2
 -0.1 0.5 0.2
 0 0.5 0.2
 0.1 0.5 0.2
 0.2 0.5 0.2
 0.3 0.5 0.2
 0.4 0.5 0.2
 0.5 0.5 0.2
 -0.5 0.5 0.3
 -0.4 0.5 0.3
 -0.3 0.5 0.3
 -0.2 0.5 0.3
 -0.1 0.5 0.3
 0 0.5 0.3
 0.1 0.5 0.3
 0.2 0.5 0.3
 0.3 0.5 0.3
 0.4 0.5 0.3
 0.5 0.5 0.3
 -0.5 0.5 0.4
 -0.4 0.5 0.4
 -0.3 0.5 0.4
 -0.2 0.5 0.4
 -0.1 0.5 0.4
 0 0.5 0.4
 0.1 0.5 0.4
 0.2 0.5 0.4
 0.3 0.5 0.4
 0.4 0.5 0.4
 0.5 0.5 0.4
 -0.5 -0.5 -0.4
 -0.4 -0.5 -0.4
 -0.3 -0.5 -0.4
 -0.2 -0.5 -0.4
 -0.1 -0.5 -0.4
 0 -0.5 -0.4
 0.1 -0.5 -0.4
 0.2 -0.5 -0.4
 0.3 -0.5 -0.4
 0.4 -0.5 -0.4
 0.5 -0.5 -0.4
 -0.5 -0.5 -0.3
 -0.4 -0.5 -0.3
 -0.3 -0.5 -0.3
 -0.2 -0.5 -0.3
 -0.1 -0.5 -0.3
 0 -0.5 -0.3
 0.1 -0.5 -0.3
 0.2 -0.5 -0.3
 0.3 -0.5 -0.3
 0.4 -0.5 -0.3
 0.5 -0.5 -0.3
 -0.5 -0.5 -0.2
 -0.4 -0.5 -0.2
 -0.3 -0.5 -0.2
 -0.2 -0.5 -0.2
 -0.1 -0.5 -0.2
 0 -0.5 -0.2
 0.1 -0.5 -0.2
 0.2 -0.5 -0.2
 0.3 -0.5 -0.2
 0.4 -0.5 -0.2
 0.5 -0.5 -0.2
 -0.5 -0.5 -0.1
 -0.4 -0.5 -0.1
 -0.3 -0.5 -0.1
 -0.2 -0.5 -0.1
 -0.1 -0.5 -0.1
 0 -0.5 -0.1
 0.1 -0.5 -0.1
 0.2 -0.5 -0.1
 0.3 -0.5 -0.1
 0.4 -0.5 -0.1
 0.5 -0.5 -0.1
 -0.5 -0.5 0
 -0.4 -0.5 0
 -0.3 -0.5 0
 -0.2 -0.5 0
 -0.1 -0.5 0
 0 -0.5 0
 0.1 -0.5 0
 0.2 -0.5 0
 0.3 -0.5 0
 0.4 -0.5 0
 0.5 -0.5 0
 -0.5 -0.5 0.1
 -0.4 -0.5 0.1
 -0.3 -0.5 0.1
 -0.2 -0.5 0.1
 -0.1 -0.5 0.1
 0 -0.5 0.1
 0.1 -0.5 0.1
 0.2 -0.5 0.1
 0.3 -0.5 0.1
 0.4 -0.5 0.1
 0.5 -0.5 0.1
 -0.5 -0.5 0.2
 -0.4 -0.5 0.2
 -0.3 -0.5 0.2
 -0.2 -0.5 0.2
 -0.1 -0.5 0.2
 0 -0.5 0.2
 0.1 -0.5 0.2
 0.2 -0.5 0.2
 0.3 -0.5 0.2
 0.4 -0.5 0.2
 0.5 -0.5 0.2
 -0.5 -0.5 0.3
 -0.4 -0.5 0.3
 -0.3 -0.5 0.3
 -0.2 -0.5 0.3
 -0.1 -0.5 0.3
 0 -0.5 0.3
 0.1 -0.5 0.3
 0.2 -0.5 0.3
 0.3 -0.5 0.3
 0.4 -0.5 0.3
 0.5 -0.5 0.3
 -0.5 -0.5 0.4
 -0.4 -0.5 0.4
 -0.3 -0.5 0.4
 -0.2 -0.5 0.4
 -0.1 -0.5 0.4
 0 -0.5 0.4
 0.1 -0.5 0.4
 0.2 -0.5 0.4
 0.3 -0.5 0.4
 0.4 -0.5 0.4
 0.5 -0.5 0.4
 -0.5 -0.4 -0.4
 -0.5 -0.3 -0.4
 -0.5 -0.2 -0.4
 -0.5 -0.1 -0.4
 -0.5 0 -0.4
 -0.5 0.1 -0.4
 -0.5 0.2 -0.4
 -0.5 0.3 -0.4
 -0.5 0.4 -0.4
 -0.5 -0.4 -0.3
 -0.5 -0.3 -0.3
 -0.5 -0.2 -0.3
 -0.5 -0.1 -0.3
 -0.5 0 -0.3
 -0.5 0.1 -0.3
 -0.5 0.2 -0.3
 -0.5 0.3 -0.3
 -0.5 0.4 -0.3
 -0.5 -0.4 -0.2
 -0.5 -0.3 -0.2
 -0.5 -0.2 -0.2
 -0.5 -0.1 -0.2
 -0.5 0 -0.2
 -0.5 0.1 -0.2
 -0.5 0.2 -0.2
 -0.5 0.3 -0.2
 -0.5 0.4 -0.2
 -0.5 -0.4 -0.1
 -0.5 -0.3 -0.1
 -0.5 -0.2 -0.1
 -0.5 -0.1 -0.1
 -0.5 0 -0.1
 -0.5 0.1 -0.1
 -0.5 0.2 -0.1
 -0.5 0.3 -0.1
 -0.5 0.4 -0.1
 -0.5 -0.4 0
 -0.5 -0.3 0
 -0.5 -0.2 0
 -0.5 -0.1 0
 -0.5 0 0
 -0.5 0.1 0
 -0.5 0.2 0
 -0.5 0.3 0
 -0.5 0.4 0
 -0.5 -0.4 0.1
 -0.5 -0.3 0.1
 -0.5 -0.2 0.1
 -0.5 -0.1 0.1
 -0.5 0 0.1
 -0.5 0.1 0.1
 -0.5 0.2 0.1
 -0.5 0.3 0.1
 -0.5 0.4 0.1
 -0.5 -0.4 0.2
 -0.5 -0.3 0.2
 -0.5 -0.2 0.2
 -0.5 -0.1 0.2
 -0.5 0 0.2
 -0.5 0.1 0.2
 -0.5 0.2 0.2
 -0.5 0.3 0.2
 -0.5 0.4 0.2
 -0.5 -0.4 0.3
 -0.5 -0.3 0.3
 -0.5 -0.2 0.3
 -0.5 -0.1 0.3
 -0.5 0 0.3
 -0.5 0.1 0.3
 -0.5 0.2 0.3
 -0.5 0.3 0.3
 -0.5 0.4 0.3
 -0.5 -0.4 0.4
 -0.5 -0.3 0.4
 -0.5 -0.2 0.4
 -0.5 -0.1 0.4
 -0.5 0 0.4
 -0.5 0.1 0.4
 -0.5 0.2 0.4
 -0.5 0.3 0.4
 -0.5 0.4 0.4
 0.5 -0.4 -0.4
 0.5 -0.3 -0.4
 0.5 -0.2 -0.4
 0.5 -0.1 -0.4
 0.5 0 -0.4
 0.5 0.1 -0.4
 0.5 0.2 -0.4
 0.5 0.3 -0.4
 0.5 0.4 -0.4
 0.5 -0.4 -0.3
 0.5 -0.3 -0.3
 0.5 -0.2 -0.3
 0.5 -0.1 -0.3
 0.5 0 -0.3
 0.5 0.1 -0.3
 0.5 0.2 -0.3
 0.5 0.3 -0.3
 0.5 0.4 -0.3
 0.5 -0.4 -0.2
 0.5 -0.3 -0.2
 0.5 -0.2 -0.2
 0.5 -0.1 -0.2
 0.5 0 -0.2
 0.5 0.1 -0.2
 0.5 0.2 -0.2
 0.5 0.3 -0.2
 0.5 0.4 -0.2
 0.5 -0.4 -0.1
 0.5 -0.3 -0.1
 0.5 -0.2 -0.1
 0.5 -0.1 -0.1
 0.5 0 -0.1
 0.5 0.1 -0.1
 0.5 0.2 -0.1
 0.5 0.3 -0.1
 0.5 0.4 -0.1
 0.5 -0.4 0
 0.5 -0.3 0
 0.5 -0.2 0
 0.5 -0.1 0
 0.5 0 0
 0.5 0.1 0
 0.5 0.2 0
 0.5 0.3 0
 0.5 0.4 0
 0.5 -0.4 0.1
 0.5 -0.3 0.1
 0.5 -0.2 0.1
 0.5 -0.1 0.1
 0.5 0 0.1
 0.5 0.1 0.1
 0.5 0.2 0.1
 0.5 0.3 0.1
 0.5 0.4 0.1
 0.5 -0.4 0.2
 0.5 -0.3 0.2
 0.5 -0.2 0.2
 0.5 -0.1 0.2
 0.5 0 0.2
 0.5 0.1 0.2
 0.5 0.2 0.2
 0.5 0.3 0.2
 0.5 0.4 0.2
 0.5 -0.4 0.3
 0.5 -0.3 0.3
 0.5 -0.2 0.3
 0.5 -0.1 0.3
 0.5 0 0.3
 0.5 0.1 0.3
 0.5 0.2 0.3
 0.5 0.3 0.3
 0.5 0.4 0.3
 0.5 -0.4 0.4
 0.5 -0.3 0.4
 0.5 -0.2 0.4
 0.5 -0.1 0.4
 0.5 0 0.4
 0.5 0.1 0.4
 0.5 0.2 0.4
 0.5 0.3 0.4
 0.5 0.4 0.4

CELLS 600 3000
 4 0 1 12 11
 4 1 2 13 12
 4 2 3 14 13
 4 3 4 15 14
 4 4 5 16 15
 4 5 6 17 16
 4 6 7 18 17
 4 7 8 19 18
 4 8 9 20 19
 4 9 10 21 20
 4 11 12 23 22
 4 12 13 24 23
 4 13 14 25 24
 4 14 15 26 25
 4 15 16 27 26
 4 16 17 28 27
 4 17 18 29 28
 4 18 19 30 29
 4 19 20 31 30
 4 20 21 32 31
 4 22 23 34 33
 4 23 24 35 34
 4 24 25 36 35
 4 25 26 37 36
 4 26 27 38 37
 4 27 28 39 38
 4 28 29 40 39
 4 29 30 41 40
 4 30 31 42 41
 4 31 32 43 42
 4 33 34 45 44
 4 34 35 46 45
 4 35 36 47 46
 4 36 37 48 47
 4 37 38 49 48
 4 38 39 50 49
 4 39 40 51 50
 4 40 41 52 51
 4 41 42 53 52
 4 42 43 54 53
 4 44 45 56 55
 4 45 46 57 56
 4 46 47 58 57
 4 47 48 59 58
 4 48 49 60 59
 4 49 50 61 60
 4 50 51 62 61
 4 51 52 63 62
 4 52 53 64 63
 4 53 54 65 64
 4 55 56 67 66
 4 56 57 68 67
 4 57 58 69 68
 4 58 59 70 69
 4 59 60 71 70
 4 60 61 72 71
 4 61 62 73 72
 4 62 63 74 73
 4 63 64 75 74
 4 64 65 76 75
 4 66 67 78 77
 4 67 68 79 78
 4 68 69 80 79
 4 69 70 81 80
 4 70 71 82 81
 4 71 72 83 82
 4 72 73 84 83
 4 73 74 85 84
 4 74 75 86 85
 4 75 76 87 86
 4 77 78 89 88
 4 78 79 90 89
 4 79 80 91 90
 4 80 81 92 91
 4 81 82 93 92
 4 82 83 94 93
 4 83 84 95 94
 4 84 85 96 95
 4 85 86 97 96
 4 86 87 98 97
 4 88 89 100 99
 4 89 90 101 100
 4 90 91 102 101
 4 91 92 103 102
 4 92 93 104 103
 4 93 94 105 104
 4 94 95 106 105
 4 95 96 107 106
 4 96 97 108 107
 4 97 98 109 108
 4 99 100 111 110
 4 100 101 112 111
 4 101 102 113 112
 4 102 103 114 113
[...]
CELL_DATA 600
FIELD DOMAIN 2
SurfaceElement_HEAT_FLUX_q 1 600 FLOAT
 0.734714
 0.706676
 0.693903
 0.694015
 0.672194
 0.698826
 0.692644
 0.670852
 0.72504
 0.72867
 0.745827
 0.691846
 0.698322
 0.701987
 0.683129
 0.688189
 0.682163
 0.698543
 0.708517
 0.736633
 0.726559
 0.718597
 0.688591
 0.68687
 0.680736
 0.699649
 0.669425
 0.708875
 0.690549
 0.718947
 0.728701
 0.714856
 0.688605
 0.667355
 0.661232
 0.691489
 0.682927
 0.708428
 0.69434
 0.72991
 0.72233
 0.721097
 0.682699
 0.693569
 0.681586
 0.660496
 0.686986
 0.709417
 0.719164
 0.711256
 0.726069
 0.730202
 0.678444
 0.681058
 0.681432
 0.677185
 0.675514
 0.693986
 0.700009
 0.726256
 0.739181
 0.710562
 0.720476
 0.687049
 0.682168
 0.670558
 0.685504
 0.703299
 0.71961
 0.727003
 0.715531
 0.68993
 0.708794
 0.687601
 0.688928
 0.665923
 0.6939
 0.689252
 0.715829
 0.733306
 0.729212
 0.714266
 0.682068
 0.69158
 0.687093
 0.672914
 0.691576
 0.692805
 0.706281
 0.74351
 0.722004
 0.712414
 0.708684
 0.688961
 0.694318
 0.668743
 0.676793
 0.696558
 0.712392
 0.739279
 0.728096
 0.700806
 0.681344
 0.672529
 0.655452
 0.670773
 0.686112
 0.718458
 0.695422
 0.725657
 0.732013
 0.724284
 0.704958
 0.689308
 0.679024
 0.676458
 0.699039
 0.676303
 0.719246
 0.738339
 0.720408
 0.721363
 0.697441
 0.697261
 0.640728
 0.697073
 0.712724
 0.686886
 0.722702
 0.725984
 0.719859
 0.716653
 0.697358
 0.665473
 0.68209
 0.670383
 0.687496
 0.71758
 0.703606
 0.724222
 0.721439
 0.709535
 0.70499
 0.672171
 0.68543
 0.685813
 0.688095
 0.707365
 0.713529
 0.715371
 0.737189
 0.697033
 0.701797
 0.650768
 0.676427
 0.665661
 0.691381
 0.68483
 0.692882
 0.728862
 0.738717
 0.712019
 0.704966
 0.68431
 0.6671
 0.689615
 0.675699
 0.681558
 0.721311
 0.709541
 0.734907
 0.68614
 0.686795
 0.685607
 0.661207
 0.705172
 0.683388
 0.698341
 0.708754
 0.737488
 0.730047
 0.729617
 0.685996
 0.698404
 0.682623
 0.680414
 0.685338
 0.693077
 0.71997
 0.731603
 0.725705
 0.716168
 0.723921
 0.709868
 0.671248
 0.708811
 0.680885
 0.691694
 0.706642
 0.718439
 0
 0
 0
 0
 0
 0
 0
 0
 0
 0
 0
 0
 0
 0
 0
 0
 0
 0
 0
 0
 0
 0
 0
 0
 0
 0
 0
 0
 0
 0
 0
 0
 0
 0
 0
 0
 0
 0
 0
 0
 0
 0
 0
 0
 0
 0
 0
 0
 0
 0
 0
 0
 0
 0
 0
 0
 0
 0
 0
 0
 0
 0
 0
 0
 0
 0
 0
 0
 0
 0
 0
 0
 0
 0
 0
 0
 0
 0
 0
 0
 0
 0
 0
 0
 0
 0
 0
 0
 0
 0
 0
 0
 0
 0
 0
 0
 0
 0
 0
 0
 0
 0
 0
 0
 0
 0
 0
 0
 0
 0
 0
 0
 0
 0
 0
 0
 0
 0
 0
 0
 0
 0
 0
 0
 0
 0
 0
 0
 0
 0
 0
 0
 0
 0
 0
 0
 0
 0
 0
 0
 0
 0
 0
 0
 0
 0
 0
 0
 0
 0
 0
 0
 0
 0
 0
 0
 0
 0
 0
 0
 0
 0
 0
 0
 0
 0
 0
 0
 0
 0
 0
 0
 0
 0
 0
 0
 0
 0
 0
 0
 0
 0
 0
 0
 0
 0
 0
 0
 0
 0
 0
 0
 0
 0
 0
 0
 0
 0
 0
 0
 -0.760628
 -0.76714
 -0.759978
 -0.719
 -0.728205
 -0.759966
 -0.753837
 -0.706125
 -0.773251
 -0.698577
 -0.735851
 -0.662575
 -0.732872
 -0.718537
 -0.763966
 -0.762863
 -0.752264
 -0.737757
 -0.704184
 -0.737043
 -0.671582
 -0.690671
 -0.667251
 -0.70946
 -0.693825
 -0.64671
 -0.720909
 -0.691144
 -0.675035
 -0.699155
 -0.687463
 -0.68673
 -0.685351
 -0.630852
 -0.685227
 -0.681785
 -0.688949
 -0.681449
 -0.669114
 -0.680343
 -0.672117
 -0.704194
 -0.680156
 -0.646576
 -0.635915
 -0.681765
 -0.654489
 -0.667869
 -0.635186
 -0.701427
 -0.617893
 -0.641007
 -0.626748
 -0.660952
 -0.647123
 -0.665366
 -0.664937
 -0.70879
 -0.663939
 -0.669367
 -0.679779
 -0.688809
 -0.632866
 -0.665018
 -0.670605
 -0.676401
 -0.658513
 -0.682215
 -0.668613
 -0.687317
 -0.685373
 -0.698817
 -0.691225
 -0.719183
 -0.711539
 -0.684829
 -0.703408
 -0.681005
 -0.675893
 -0.660391
 -0.697842
 -0.725817
 -0.74908
 -0.710115
 -0.705563
 -0.70145
 -0.696386
 -0.70388
 -0.702812
 -0.687066
 -0.777645
 -0.758813
 -0.751293
 -0.719893
 -0.749279
 -0.760505
 -0.791654
 -0.745745
 -0.742468
 -0.770361
 -0.760511
 -0.733997
 -0.735658
 -0.80596
 -0.745109
 -0.760288
 -0.74915
 -0.735733
 -0.758708
 -0.784722
 -0.707529
 -0.701499
 -0.727881
 -0.733406
 -0.703623
 -0.71308
 -0.6768
 -0.747144
 -0.738369
 -0.72215
 -0.691564
 -0.695999
 -0.697206
 -0.699199
 -0.746059
 -0.706639
 -0.693155
 -0.699493
 -0.709072
 -0.709106
 -0.693787
 -0.650596
 -0.64423
 -0.703417
 -0.671203
 -0.670729
 -0.654188
 -0.689765
 -0.689592
 -0.681654
 -0.669907
 -0.636408
 -0.646547
 -0.655711
 -0.659141
 -0.636948
 -0.635282
 -0.650039
 -0.649827
 -0.621113
 -0.676876
 -0.671082
 -0.66325
 -0.682475
 -0.64997
 -0.674901
 -0.66893
 -0.651978
 -0.640799
 -0.66108
 -0.667974
 -0.683307
 -0.703353
 -0.666199
 -0.672092
 -0.685061
 -0.683432
 -0.645099
 -0.695885
 -0.684238
 -0.693416
 -0.693633
 -0.710978
 -0.674114
 -0.680557
 -0.670775
 -0.671088
 -0.702336
 -0.710252
 -0.714166
 -0.749213
 -0.702174
 -0.738616
 -0.717531
 -0.680021
 -0.713179
 -0.710656
 -0.733073
 -0.724328
 -0.690447
 -0.744875
 -0.768272
 -0.789286
 -0.751536
 -0.771294
 -0.782905
 -0.749011
 -0.763238
 -0.741281
 -0.763393

SurfaceElement_HEAT_Q 1 600 FLOAT 
 0.00734714
 0.00706676
 0.00693903
 0.00694015
 0.00672194
 0.00698826
 0.00692644
 0.00670852
 0.0072504
 0.0072867
 0.00745827
 0.00691846
 0.00698322
 0.00701987
 0.00683129
 0.00688189
 0.00682163
 0.00698543
 0.00708517
 0.00736633
 0.00726559
 0.00718597
 0.00688591
 0.0068687
 0.00680736
 0.00699649
 0.00669425
 0.00708875
 0.00690549
 0.00718947
 0.00728701
 0.00714856
 0.00688605
 0.00667355
 0.00661232
 0.00691489
 0.00682927
 0.00708428
 0.0069434
 0.0072991
 0.0072233
 0.00721097
 0.00682699
 0.00693569
 0.00681586
 0.00660496
 0.00686986
 0.00709417
 0.00719164
 0.00711256
 0.00726069
 0.00730202
 0.00678444
 0.00681058
 0.00681432
 0.00677185
 0.00675514
 0.00693986
 0.00700009
 0.00726256
 0.00739181
 0.00710562
 0.00720476
 0.00687049
 0.00682168
 0.00670558
 0.00685504
 0.00703299
 0.0071961
 0.00727003
 0.00715531
 0.0068993
 0.00708794
 0.00687601
 0.00688928
 0.00665923
 0.006939
 0.00689252
 0.00715829
 0.00733306
 0.00729212
 0.00714266
 0.00682068
 0.0069158
 0.00687093
 0.00672914
 0.00691576
 0.00692805
 0.00706281
 0.0074351
 0.00722004
 0.00712414
 0.00708684
 0.00688961
 0.00694318
 0.00668743
 0.00676793
 0.00696558
 0.00712392
 0.00739279
 0.00728096
 0.00700806
 0.00681344
 0.00672529
 0.00655452
 0.00670773
 0.00686112
 0.00718458
 0.00695422
 0.00725657
 0.00732013
 0.00724284
 0.00704958
 0.00689308
 0.00679024
 0.00676458
 0.00699039
 0.00676303
 0.00719246
 0.00738339
 0.00720408
 0.00721363
 0.00697441
 0.00697261
 0.00640728
 0.00697073
 0.00712724
 0.00686886
 0.00722702
 0.00725984
 0.00719859
 0.00716653
 0.00697358
 0.00665473
 0.0068209
 0.00670383
 0.00687496
 0.0071758
 0.00703606
 0.00724222
 0.00721439
 0.00709535
 0.0070499
 0.00672171
 0.0068543
 0.00685813
 0.00688095
 0.00707365
 0.00713529
 0.00715371
 0.00737189
 0.00697033
 0.00701797
 0.00650768
 0.00676427
 0.00665661
 0.00691381
 0.0068483
 0.00692882
 0.00728862
 0.00738717
 0.00712019
 0.00704966
 0.0068431
 0.006671
 0.00689615
 0.00675699
 0.00681558
 0.00721311
 0.00709541
 0.00734907
 0.0068614
 0.00686795
 0.00685607
 0.00661207
 0.00705172
 0.00683388
 0.00698341
 0.00708754
 0.00737488
 0.00730047
 0.00729617
 0.00685996
 0.00698404
 0.00682623
 0.00680414
 0.00685338
 0.00693077
 0.0071997
 0.00731603
 0.00725705
 0.00716168
 0.00723921
 0.00709868
 0.00671248
 0.00708811
 0.00680885
 0.00691694
 0.00706642
 0.00718439
 0
 0
 0
 0
 0
 0
 0
 0
 0
 0
 0
 0
 0
 0
 0
 0
 0
 0
 0
 0
 0
 0
 0
 0
 0
 0
 0
 0
 0
 0
 0
 0
 0
 0
 0
 0
 0
 0
 0
 0
 0
 0
 0
 0
 0
 0
 0
 0
 0
 0
 0
 0
 0
 0
 0
 0
 0
 0
 0
 0
 0
 0
 0
 0
 0
 0
 0
 0
 0
 0
 0
 0
 0
 0
 0
 0
 0
 0
 0
 0
 0
 0
 0
 0
 0
 0
 0
 0
 0
 0
 0
 0
 0
 0
 0
 0
 0
 0
 0
 0
 0
 0
 0
 0
 0
 0
 0
 0
 0
 0
 0
 0
 0
 0
 0
 0
 0
 0
 0
 0
 0
 0
 0
 0
 0
 0
 0
 0
 0
 0
 0
 0
 0
 0
 0
 0
 0
 0
 0
 0
 0
 0
 0
 0
 0
 0
 0
 0
 0
 0
 0
 0
 0
 0
 0
 0
 0
 0
 0
 0
 0
 0
 0
 0
 0
 0
 0
 0
 0
 0
 0
 0
 0
 0
 0
 0
 0
 0
 0
 0
 0
 0
 0
 0
 0
 0
 0
 0
 0
 0
 0
 0
 0
 0
 0
 0
 0
 0
 0
 0
 -0.00760628
 -0.0076714
 -0.00759978
 -0.00719
 -0.00728205
 -0.00759966
 -0.00753837
 -0.00706125
 -0.00773251
 -0.00698577
 -0.00735851
 -0.00662575
 -0.00732872
 -0.00718537
 -0.00763966
 -0.00762863
 -0.00752264
 -0.00737757
 -0.00704184
 -0.00737043
 -0.00671582
 -0.00690671
 -0.00667251
 -0.0070946
 -0.00693825
 -0.0064671
 -0.00720909
 -0.00691144
 -0.00675035
 -0.00699155
 -0.00687463
 -0.0068673
 -0.00685351
 -0.00630852
 -0.00685227
 -0.00681785
 -0.00688949
 -0.00681449
 -0.00669114
 -0.00680343
 -0.00672117
 -0.00704194
 -0.00680156
 -0.00646576
 -0.00635915
 -0.00681765
 -0.00654489
 -0.00667869
 -0.00635186
 -0.00701427
 -0.00617893
 -0.00641007
 -0.00626748
 -0.00660952
 -0.00647123
 -0.00665366
 -0.00664937
 -0.0070879
 -0.00663939
 -0.00669367
 -0.00679779
 -0.00688809
 -0.00632866
 -0.00665018
 -0.00670605
 -0.00676401
 -0.00658513
 -0.00682215
 -0.00668613
 -0.00687317
 -0.00685373
 -0.00698817
 -0.00691225
 -0.00719183
 -0.00711539
 -0.00684829
 -0.00703408
 -0.00681005
 -0.00675893
 -0.00660391
 -0.00697842
 -0.00725817
 -0.0074908
 -0.00710115
 -0.00705563
 -0.0070145
 -0.00696386
 -0.0070388
 -0.00702812
 -0.00687066
 -0.00777645
 -0.00758813
 -0.00751293
 -0.00719893
 -0.00749279
 -0.00760505
 -0.00791654
 -0.00745745
 -0.00742468
 -0.00770361
 -0.00760511
 -0.00733997
 -0.00735658
 -0.0080596
 -0.00745109
 -0.00760288
 -0.0074915
 -0.00735733
 -0.00758708
 -0.00784722
 -0.00707529
 -0.00701499
 -0.00727881
 -0.00733406
 -0.00703623
 -0.0071308
 -0.006768
 -0.00747144
 -0.00738369
 -0.0072215
 -0.00691564
 -0.00695999
 -0.00697206
 -0.00699199
 -0.00746059
 -0.00706639
 -0.00693155
 -0.00699493
 -0.00709072
 -0.00709106
 -0.00693787
 -0.00650596
 -0.0064423
 -0.00703417
 -0.00671203
 -0.00670729
 -0.00654188
 -0.00689765
 -0.00689592
 -0.00681654
 -0.00669907
 -0.00636408
 -0.00646547
 -0.00655711
 -0.00659141
 -0.00636948
 -0.00635282
 -0.00650039
 -0.00649827
 -0.00621113
 -0.00676876
 -0.00671082
 -0.0066325
 -0.00682475
 -0.0064997
 -0.00674901
 -0.0066893
 -0.00651978
 -0.00640799
 -0.0066108
 -0.00667974
 -0.00683307
 -0.00703353
 -0.00666199
 -0.00672092
 -0.00685061
 -0.00683432
 -0.00645099
 -0.00695885
 -0.00684238
 -0.00693416
 -0.00693633
 -0.00710978
 -0.00674114
 -0.00680557
 -0.00670775
 -0.00671088
 -0.00702336
 -0.00710252
 -0.00714166
 -0.00749213
 -0.00702174
 -0.00738616
 -0.00717531
 -0.00680021
 -0.00713179
 -0.00710656
 -0.00733073
 -0.00724328
 -0.00690447
 -0.00744875
 -0.00768272
 -0.00789286
 -0.00751536
 -0.00771294
 -0.00782905
 -0.00749011
 -0.00763238
 -0.00741281
 -0.00763393
