# vtk DataFile Version 2.0
Three-D cube surface heat flux and Q display
ASCII
DATASET UNSTRUCTURED_GRID

POINTS 602 FLOAT 
 -0.5 -0.5 -0.5
 -0.4 -0.5 -0.5
 -0.3 -0.5 -0.5
 -0.2 -0.5 -0.5
 -0.1 -0.5 -0.5
 0 -0.5 -0.5
 0.1 -0.5 -0.5
 0.2 -0.5 -0.5
 0.3 -0.5 -0.5
 0.4 -0.5 -0.5
 0.5 -0.5 -0.5
 -0.5 -0.4 -0.5
 -0.4 -0.4 -0.5
 -0.3 -0.4 -0.5
 -0.2 -0.4 -0.5
 -0.1 -0.4 -0.5
 0 -0.4 -0.5
 0.1 -0.4 -0.5
 0.2 -0.4 -0.5
 0.3 -0.4 -0.5
 0.4 -0.4 -0.5
 0.5 -0.4 -0.5
 -0.5 -0.3 -0.5
 -0.4 -0.3 -0.5
 -0.3 -0.3 -0.5
 -0.2 -0.3 -0.5
 -0.1 -0.3 -0.5
 0 -0.3 -0.5
 0.1 -0.3 -0.5
 0.2 -0.3 -0.5
 0.3 -0.3 -0.5
 0.4 -0.3 -0.5
 0.5 -0.3 -0.5
 -0.5 -0.2 -0.5
 -0.4 -0.2 -0.5
 -0.3 -0.2 -0.5
 -0.2 -0.2 -0.5
 -0.1 -0.2 -0.5
 0 -0.2 -0.5
 0.1 -0.2 -0.5
 0.2 -0.2 -0.5
 0.3 -0.2 -0.5
 0.4 -0.2 -0.5
 0.5 -0.2 -0.5
 -0.5 -0.1 -0.5
 -0.4 -0.1 -0.5
 -0.3 -0.1 -0.5
 -0.2 -0.1 -0.5
 -0.1 -0.1 -0.5
 0 -0.1 -0.5
 0.1 -0.1 -0.5
 0.2 -0.1 -0.5
 0.3 -0.1 -0.5
 0.4 -0.1 -0.5
 0.5 -0.1 -0.5
 -0.5 0 -0.5
 -0.4 0 -0.5
 -0.3 0 -0.5
 -0.2 0 -0.5
 -0.1 0 -0.5
 0 0 -0.5
 0.1 0 -0.5
 0.2 0 -0.5
 0.3 0 -0.5
 0.4 0 -0.5
 0.5 0 -0.5
 -0.5 0.1 -0.5
 -0.4 0.1 -0.5
 -0.3 0.1 -0.5
 -0.2 0.1 -0.5
 -0.1 0.1 -0.5
 0 0.1 -0.5
 0.1 0.1 -0.5
 0.2 0.1 -0.5
 0.3 0.1 -0.5
 0.4 0.1 -0.5
 0.5 0.1 -0.5
 -0.5 0.2 -0.5
 -0.4 0.2 -0.5
 -0.3 0.2 -0.5
 -0.2 0.2 -0.5
 -0.1 0.2 -0.5
 0 0.2 -0.5
 0.1 0.2 -0.5
 0.2 0.2 -0.5
 0.3 0.2 -0.5
 0.4 0.2 -0.5
 0.5 0.2 -0.5
 -0.5 0.3 -0.5
 -0.4 0.3 -0.5
 -0.3 0.3 -0.5
 -0.2 0.3 -0.5
 -0.1 0.3 -0.5
 0 0.3 -0.5
 0.1 0.3 -0.5
 0.2 0.3 -0.5
 0.3 0.3 -0.5
 0.4 0.3 -0.5
 0.5 0.3 -0.5
 -0.5 0.4 -0.5
 -0.4 0.4 -0.5
 -0.3 0.4 -0.5
 -0.2 0.4 -0.5
 -0.1 0.4 -0.5
 0 0.4 -0.5
 0.1 0.4 -0.5
 0.2 0.4 -0.5
 0.3 0.4 -0.5
 0.4 0.4 -0.5
 0.5 0.4 -0.5
 -0.5 0.5 -0.5
 -0.4 0.5 -0.5
 -0.3 0.5 -0.5
 -0.2 0.5 -0.5
 -0.1 0.5 -0.5
 0 0.5 -0.5
 0.1 0.5 -0.5
 0.2 0.5 -0.5
 0.3 0.5 -0.5
 0.4 0.5 -0.5
 0.5 0.5 -0.5
 -0.5 -0.5 0.5
 -0.4 -0.5 0.5
 -0.3 -0.5 0.5
 -0.2 -0.5 0.5
 -0.1 -0.5 0.5
 0 -0.5 0.5
 0.1 -0.5 0.5
 0.2 -0.5 0.5
 0.3 -0.5 0.5
 0.4 -0.5 0.5
 0.5 -0.5 0.5
 -0.5 -0.4 0.5
 -0.4 -0.4 0.5
 -0.3 -0.4 0.5
 -0.2 -0.4 0.5
 -0.1 -0.4 0.5
 0 -0.4 0.5
 0.1 -0.4 0.5
 0.2 -0.4 0.5
 0.3 -0.4 0.5
 0.4 -0.4 0.5
 0.5 -0.4 0.5
 -0.5 -0.3 0.5
 -0.4 -0.3 0.5
 -0.3 -0.3 0.5
 -0.2 -0.3 0.5
 -0.1 -0.3 0.5
 0 -0.3 0.5
 0.1 -0.3 0.5
 0.2 -0.3 0.5
 0.3 -0.3 0.5
 0.4 -0.3 0.5
 0.5 -0.3 0.5
 -0.5 -0.2 0.5
 -0.4 -0.2 0.5
 -0.3 -0.2 0.5
 -0.2 -0.2 0.5
 -0.1 -0.2 0.5
 0 -0.2 0.5
 0.1 -0.2 0.5
 0.2 -0.2 0.5
 0.3 -0.2 0.5
 0.4 -0.2 0.5
 0.5 -0.2 0.5
 -0.5 -0.1 0.5
 -0.4 -0.1 0.5
 -0.3 -0.1 0.5
 -0.2 -0.1 0.5
 -0.1 -0.1 0.5
 0 -0.1 0.5
 0.1 -0.1 0.5
 0.2 -0.1 0.5
 0.3 -0.1 0.5
 0.4 -0.1 0.5
 0.5 -0.1 0.5
 -0.5 0 0.5
 -0.4 0 0.5
 -0.3 0 0.5
 -0.2 0 0.5
 -0.1 0 0.5
 0 0 0.5
 0.1 0 0.5
 0.2 0 0.5
 0.3 0 0.5
 0.4 0 0.5
 0.5 0 0.5
 -0.5 0.1 0.5
 -0.4 0.1 0.5
 -0.3 0.1 0.5
 -0.2 0.1 0.5
 -0.1 0.1 0.5
 0 0.1 0.5
 0.1 0.1 0.5
 0.2 0.1 0.5
 0.3 0.1 0.5
 0.4 0.1 0.5
 0.5 0.1 0.5
 -0.5 0.2 0.5
 -0.4 0.2 0.5
 -0.3 0.2 0.5
 -0.2 0.2 0.5
 -0.1 0.2 0.5
 0 0.2 0.5
 0.1 0.2 0.5
 0.2 0.2 0.5
 0.3 0.2 0.5
 0.4 0.2 0.5
 0.5 0.2 0.5
 -0.5 0.3 0.5
 -0.4 0.3 0.5
 -0.3 0.3 0.5
 -0.2 0.3 0.5
 -0.1 0.3 0.5
 0 0.3 0.5
 0.1 0.3 0.5
 0.2 0.3 0.5
 0.3 0.3 0.5
 0.4 0.3 0.5
 0.5 0.3 0.5
 -0.5 0.4 0.5
 -0.4 0.4 0.5
 -0.3 0.4 0.5
 -0.2 0.4 0.5
 -0.1 0.4 0.5
 0 0.4 0.5
 0.1 0.4 0.5
 0.2 0.4 0.5
 0.3 0.4 0.5
 0.4 0.4 0.5
 0.5 0.4 0.5
 -0.5 0.5 0.5
 -0.4 0.5 0.5
 -0.3 0.5 0.5
 -0.2 0.5 0.5
 -0.1 0.5 0.5
 0 0.5 0.5
 0.1 0.5 0.5
 0.2 0.5 0.5
 0.3 0.5 0.5
 0.4 0.5 0.5
 0.5 0.5 0.5
 -0.5 0.5 -0.4
 -0.4 0.5 -0.4
 -0.3 0.5 -0.4
 -0.2 0.5 -0.4
 -0.1 0.5 -0.4
 0 0.5 -0.4
 0.1 0.5 -0.4
 0.2 0.5 -0.4
 0.3 0.5 -0.4
 0.4 0.5 -0.4
 0.5 0.5 -0.4
 -0.5 0.5 -0.3
 -0.4 0.5 -0.3
 -0.3 0.5 -0.3
 -0.2 0.5 -0.3
 -0.1 0.5 -0.3
 0 0.5 -0.3
 0.1 0.5 -0.3
 0.2 0.5 -0.3
 0.3 0.5 -0.3
 0.4 0.5 -0.3
 0.5 0.5 -0.3
 -0.5 0.5 -0.2
 -0.4 0.5 -0.2
 -0.3 0.5 -0.2
 -0.2 0.5 -0.2
 -0.1 0.5 -0.2
 0 0.5 -0.2
 0.1 0.5 -0.2
 0.2 0.5 -0.2
 0.3 0.5 -0.2
 0.4 0.5 -0.2
 0.5 0.5 -0.2
 -0.5 0.5 -0.1
 -0.4 0.5 -0.1
 -0.3 0.5 -0.1
 -0.2 0.5 -0.1
 -0.1 0.5 -0.1
 0 0.5 -0.1
 0.1 0.5 -0.1
 0.2 0.5 -0.1
 0.3 0.5 -0.1
 0.4 0.5 -0.1
 0.5 0.5 -0.1
 -0.5 0.5 0
 -0.4 0.5 0
 -0.3 0.5 0
 -0.2 0.5 0
 -0.1 0.5 0
 0 0.5 0
 0.1 0.5 0
 0.2 0.5 0
 0.3 0.5 0
 0.4 0.5 0
 0.5 0.5 0
 -0.5 0.5 0.1
 -0.4 0.5 0.1
 -0.3 0.5 0.1
 -0.2 0.5 0.1
 -0.1 0.5 0.1
 0 0.5 0.1
 0.1 0.5 0.1
 0.2 0.5 0.1
 0.3 0.5 0.1
 0.4 0.5 0.1
 0.5 0.5 0.1
 -0.5 0.5 0.2
 -0.4 0.5 0.2
 -0.3 0.5 0.2
 -0.2 0.5 0.2
 -0.1 0.5 0.2
 0 0.5 0.2
 0.1 0.5 0.2
 0.2 0.5 0.2
 0.3 0.5 0.2
 0.4 0.5 0.2
 0.5 0.5 0.2
 -0.5 0.5 0.3
 -0.4 0.5 0.3
 -0.3 0.5 0.3
 -0.2 0.5 0.3
 -0.1 0.5 0.3
 0 0.5 0.3
 0.1 0.5 0.3
 0.2 0.5 0.3
 0.3 0.5 0.3
 0.4 0.5 0.3
 0.5 0.5 0.3
 -0.5 0.5 0.4
 -0.4 0.5 0.4
 -0.3 0.5 0.4
 -0.2 0.5 0.4
 -0.1 0.5 0.4
 0 0.5 0.4
 0.1 0.5 0.4
 0.2 0.5 0.4
 0.3 0.5 0.4
 0.4 0.5 0.4
 0.5 0.5 0.4
 -0.5 -0.5 -0.4
 -0.4 -0.5 -0.4
 -0.3 -0.5 -0.4
 -0.2 -0.5 -0.4
 -0.1 -0.5 -0.4
 0 -0.5 -0.4
 0.1 -0.5 -0.4
 0.2 -0.5 -0.4
 0.3 -0.5 -0.4
 0.4 -0.5 -0.4
 0.5 -0.5 -0.4
 -0.5 -0.5 -0.3
 -0.4 -0.5 -0.3
 -0.3 -0.5 -0.3
 -0.2 -0.5 -0.3
 -0.1 -0.5 -0.3
 0 -0.5 -0.3
 0.1 -0.5 -0.3
 0.2 -0.5 -0.3
 0.3 -0.5 -0.3
 0.4 -0.5 -0.3
 0.5 -0.5 -0.3
 -0.5 -0.5 -0.2
 -0.4 -0.5 -0.2
 -0.3 -0.5 -0.2
 -0.2 -0.5 -0.2
 -0.1 -0.5 -0.2
 0 -0.5 -0.2
 0.1 -0.5 -0.2
 0.2 -0.5 -0.2
 0.3 -0.5 -0.2
 0.4 -0.5 -0.2
 0.5 -0.5 -0.2
 -0.5 -0.5 -0.1
 -0.4 -0.5 -0.1
 -0.3 -0.5 -0.1
 -0.2 -0.5 -0.1
 -0.1 -0.5 -0.1
 0 -0.5 -0.1
 0.1 -0.5 -0.1
 0.2 -0.5 -0.1
 0.3 -0.5 -0.1
 0.4 -0.5 -0.1
 0.5 -0.5 -0.1
 -0.5 -0.5 0
 -0.4 -0.5 0
 -0.3 -0.5 0
 -0.2 -0.5 0
 -0.1 -0.5 0
 0 -0.5 0
 0.1 -0.5 0
 0.2 -0.5 0
 0.3 -0.5 0
 0.4 -0.5 0
 0.5 -0.5 0
 -0.5 -0.5 0.1
 -0.4 -0.5 0.1
 -0.3 -0.5 0.1
 -0.2 -0.5 0.1
 -0.1 -0.5 0.1
 0 -0.5 0.1
 0.1 -0.5 0.1
 0.2 -0.5 0.1
 0.3 -0.5 0.1
 0.4 -0.5 0.1
 0.5 -0.5 0.1
 -0.5 -0.5 0.2
 -0.4 -0.5 0.2
 -0.3 -0.5 0.2
 -0.2 -0.5 0.2
 -0.1 -0.5 0.2
 0 -0.5 0.2
 0.1 -0.5 0.2
 0.2 -0.5 0.2
 0.3 -0.5 0.2
 0.4 -0.5 0.2
 0.5 -0.5 0.2
 -0.5 -0.5 0.3
 -0.4 -0.5 0.3
 -0.3 -0.5 0.3
 -0.2 -0.5 0.3
 -0.1 -0.5 0.3
 0 -0.5 0.3
 0.1 -0.5 0.3
 0.2 -0.5 0.3
 0.3 -0.5 0.3
 0.4 -0.5 0.3
 0.5 -0.5 0.3
 -0.5 -0.5 0.4
 -0.4 -0.5 0.4
 -0.3 -0.5 0.4
 -0.2 -0.5 0.4
 -0.1 -0.5 0.4
 0 -0.5 0.4
 0.1 -0.5 0.4
 0.2 -0.5 0.4
 0.3 -0.5 0.4
 0.4 -0.5 0.4
 0.5 -0.5 0.4
 -0.5 -0.4 -0.4
 -0.5 -0.3 -0.4
 -0.5 -0.2 -0.4
 -0.5 -0.1 -0.4
 -0.5 0 -0.4
 -0.5 0.1 -0.4
 -0.5 0.2 -0.4
 -0.5 0.3 -0.4
 -0.5 0.4 -0.4
 -0.5 -0.4 -0.3
 -0.5 -0.3 -0.3
 -0.5 -0.2 -0.3
 -0.5 -0.1 -0.3
 -0.5 0 -0.3
 -0.5 0.1 -0.3
 -0.5 0.2 -0.3
 -0.5 0.3 -0.3
 -0.5 0.4 -0.3
 -0.5 -0.4 -0.2
 -0.5 -0.3 -0.2
 -0.5 -0.2 -0.2
 -0.5 -0.1 -0.2
 -0.5 0 -0.2
 -0.5 0.1 -0.2
 -0.5 0.2 -0.2
 -0.5 0.3 -0.2
 -0.5 0.4 -0.2
 -0.5 -0.4 -0.1
 -0.5 -0.3 -0.1
 -0.5 -0.2 -0.1
 -0.5 -0.1 -0.1
 -0.5 0 -0.1
 -0.5 0.1 -0.1
 -0.5 0.2 -0.1
 -0.5 0.3 -0.1
 -0.5 0.4 -0.1
 -0.5 -0.4 0
 -0.5 -0.3 0
 -0.5 -0.2 0
 -0.5 -0.1 0
 -0.5 0 0
 -0.5 0.1 0
 -0.5 0.2 0
 -0.5 0.3 0
 -0.5 0.4 0
 -0.5 -0.4 0.1
 -0.5 -0.3 0.1
 -0.5 -0.2 0.1
 -0.5 -0.1 0.1
 -0.5 0 0.1
 -0.5 0.1 0.1
 -0.5 0.2 0.1
 -0.5 0.3 0.1
 -0.5 0.4 0.1
 -0.5 -0.4 0.2
 -0.5 -0.3 0.2
 -0.5 -0.2 0.2
 -0.5 -0.1 0.2
 -0.5 0 0.2
 -0.5 0.1 0.2
 -0.5 0.2 0.2
 -0.5 0.3 0.2
 -0.5 0.4 0.2
 -0.5 -0.4 0.3
 -0.5 -0.3 0.3
 -0.5 -0.2 0.3
 -0.5 -0.1 0.3
 -0.5 0 0.3
 -0.5 0.1 0.3
 -0.5 0.2 0.3
 -0.5 0.3 0.3
 -0.5 0.4 0.3
 -0.5 -0.4 0.4
 -0.5 -0.3 0.4
 -0.5 -0.2 0.4
 -0.5 -0.1 0.4
 -0.5 0 0.4
 -0.5 0.1 0.4
 -0.5 0.2 0.4
 -0.5 0.3 0.4
 -0.5 0.4 0.4
 0.5 -0.4 -0.4
 0.5 -0.3 -0.4
 0.5 -0.2 -0.4
 0.5 -0.1 -0.4
 0.5 0 -0.4
 0.5 0.1 -0.4
 0.5 0.2 -0.4
 0.5 0.3 -0.4
 0.5 0.4 -0.4
 0.5 -0.4 -0.3
 0.5 -0.3 -0.3
 0.5 -0.2 -0.3
 0.5 -0.1 -0.3
 0.5 0 -0.3
 0.5 0.1 -0.3
 0.5 0.2 -0.3
 0.5 0.3 -0.3
 0.5 0.4 -0.3
 0.5 -0.4 -0.2
 0.5 -0.3 -0.2
 0.5 -0.2 -0.2
 0.5 -0.1 -0.2
 0.5 0 -0.2
 0.5 0.1 -0.2
 0.5 0.2 -0.2
 0.5 0.3 -0.2
 0.5 0.4 -0.2
 0.5 -0.4 -0.1
 0.5 -0.3 -0.1
 0.5 -0.2 -0.1
 0.5 -0.1 -0.1
 0.5 0 -0.1
 0.5 0.1 -0.1
 0.5 0.2 -0.1
 0.5 0.3 -0.1
 0.5 0.4 -0.1
 0.5 -0.4 0
 0.5 -0.3 0
 0.5 -0.2 0
 0.5 -0.1 0
 0.5 0 0
 0.5 0.1 0
 0.5 0.2 0
 0.5 0.3 0
 0.5 0.4 0
 0.5 -0.4 0.1
 0.5 -0.3 0.1
 0.5 -0.2 0.1
 0.5 -0.1 0.1
 0.5 0 0.1
 0.5 0.1 0.1
 0.5 0.2 0.1
 0.5 0.3 0.1
 0.5 0.4 0.1
 0.5 -0.4 0.2
 0.5 -0.3 0.2
 0.5 -0.2 0.2
 0.5 -0.1 0.2
 0.5 0 0.2
 0.5 0.1 0.2
 0.5 0.2 0.2
 0.5 0.3 0.2
 0.5 0.4 0.2
 0.5 -0.4 0.3
 0.5 -0.3 0.3
 0.5 -0.2 0.3
 0.5 -0.1 0.3
 0.5 0 0.3
 0.5 0.1 0.3
 0.5 0.2 0.3
 0.5 0.3 0.3
 0.5 0.4 0.3
 0.5 -0.4 0.4
 0.5 -0.3 0.4
 0.5 -0.2 0.4
 0.5 -0.1 0.4
 0.5 0 0.4
 0.5 0.1 0.4
 0.5 0.2 0.4
 0.5 0.3 0.4
 0.5 0.4 0.4

CELLS 600 3000
 4 0 1 12 11
 4 1 2 13 12
 4 2 3 14 13
 4 3 4 15 14
 4 4 5 16 15
 4 5 6 17 16
 4 6 7 18 17
 4 7 8 19 18
 4 8 9 20 19
 4 9 10 21 20
 4 11 12 23 22
 4 12 13 24 23
 4 13 14 25 24
 4 14 15 26 25
 4 15 16 27 26
 4 16 17 28 27
 4 17 18 29 28
 4 18 19 30 29
 4 19 20 31 30
 4 20 21 32 31
 4 22 23 34 33
 4 23 24 35 34
 4 24 25 36 35
 4 25 26 37 36
 4 26 27 38 37
 4 27 28 39 38
 4 28 29 40 39
 4 29 30 41 40
 4 30 31 42 41
 4 31 32 43 42
 4 33 34 45 44
 4 34 35 46 45
 4 35 36 47 46
 4 36 37 48 47
 4 37 38 49 48
 4 38 39 50 49
 4 39 40 51 50
 4 40 41 52 51
 4 41 42 53 52
 4 42 43 54 53
 4 44 45 56 55
 4 45 46 57 56
 4 46 47 58 57
 4 47 48 59 58
 4 48 49 60 59
 4 49 50 61 60
 4 50 51 62 61
 4 51 52 63 62
 4 52 53 64 63
 4 53 54 65 64
 4 55 56 67 66
 4 56 57 68 67
 4 57 58 69 68
 4 58 59 70 69
 4 59 60 71 70
 4 60 61 72 71
 4 61 62 73 72
 4 62 63 74 73
 4 63 64 75 74
 4 64 65 76 75
 4 66 67 78 77
 4 67 68 79 78
 4 68 69 80 79
 4 69 70 81 80
 4 70 71 82 81
 4 71 72 83 82
 4 72 73 84 83
 4 73 74 85 84
 4 74 75 86 85
 4 75 76 87 86
 4 77 78 89 88
 4 78 79 90 89
 4 79 80 91 90
 4 80 81 92 91
 4 81 82 93 92
 4 82 83 94 93
 4 83 84 95 94
 4 84 85 96 95
 4 85 86 97 96
 4 86 87 98 97
 4 88 89 100 99
 4 89 90 101 100
 4 90 91 102 101
 4 91 92 103 102
 4 92 93 104 103
 4 93 94 105 104
 4 94 95 106 105
 4 95 96 107 106
 4 96 97 108 107
 4 97 98 109 108
 4 99 100 111 110
 4 100 101 112 111
 4 101 102 113 112
 4 102 103 114 113
[...]
CELL_DATA 600
FIELD DOMAIN 2
SurfaceElement_HEAT_FLUX_q 1 600 FLOAT
 -0.0739677
 -0.0867155
 -0.0961723
 -0.10098
 -0.101213
 -0.109228
 -0.0996192
 -0.0898832
 -0.087411
 -0.0666614
 -0.0885628
 -0.101607
 -0.117686
 -0.121538
 -0.135206
 -0.131191
 -0.122194
 -0.117898
 -0.100171
 -0.0825211
 -0.0993212
 -0.1203
 -0.135901
 -0.148993
 -0.160329
 -0.155743
 -0.148918
 -0.133916
 -0.119731
 -0.0886587
 -0.101227
 -0.129377
 -0.147696
 -0.171297
 -0.170215
 -0.175698
 -0.164964
 -0.146174
 -0.133354
 -0.100026
 -0.107209
 -0.12506
 -0.156906
 -0.182647
 -0.187843
 -0.182504
 -0.17591
 -0.155647
 -0.12884
 -0.105715
 -0.105193
 -0.133976
 -0.152208
 -0.171641
 -0.184515
 -0.182587
 -0.174434
 -0.158128
 -0.128508
 -0.100882
 -0.0988837
 -0.13284
 -0.151968
 -0.162561
 -0.175194
 -0.173516
 -0.168214
 -0.145694
 -0.12535
 -0.0991505
 -0.0903068
 -0.119579
 -0.140128
 -0.150372
 -0.152863
 -0.155509
 -0.147809
 -0.134422
 -0.116953
 -0.095501
 -0.0849597
 -0.0922048
 -0.120771
 -0.127898
 -0.131094
 -0.133628
 -0.127894
 -0.120575
 -0.100381
 -0.0831145
 -0.0720787
 -0.0807345
 -0.0954668
 -0.10578
 -0.102947
 -0.103089
 -0.0986552
 -0.0944659
 -0.0859915
 -0.0720725
 -0.0760567
 -0.0896171
 -0.0946406
 -0.105152
 -0.104245
 -0.106348
 -0.099643
 -0.0991879
 -0.0858246
 -0.0639758
 -0.0861182
 -0.0981887
 -0.115039
 -0.125402
 -0.132539
 -0.134618
 -0.127309
 -0.115212
 -0.10317
 -0.0828958
 -0.0960476
 -0.123102
 -0.135357
 -0.145634
 -0.153253
 -0.154967
 -0.150438
 -0.133464
 -0.120018
 -0.0885722
 -0.102909
 -0.130236
 -0.153879
 -0.16561
 -0.167652
 -0.178995
 -0.161709
 -0.151622
 -0.123339
 -0.100086
 -0.104678
 -0.126509
 -0.155049
 -0.172305
 -0.184707
 -0.183736
 -0.172892
 -0.156996
 -0.138186
 -0.106129
 -0.110099
 -0.13853
 -0.155437
 -0.174595
 -0.182498
 -0.184498
 -0.174073
 -0.152465
 -0.131477
 -0.102643
 -0.100966
 -0.12226
 -0.152415
 -0.165683
 -0.173237
 -0.174171
 -0.161748
 -0.147015
 -0.128611
 -0.0972353
 -0.0976328
 -0.120558
 -0.133117
 -0.148188
 -0.155731
 -0.157884
 -0.152485
 -0.139024
 -0.1129
 -0.0885436
 -0.0855173
 -0.100973
 -0.12478
 -0.12709
 -0.129819
 -0.125235
 -0.128819
 -0.117737
 -0.105283
 -0.0789012
 -0.0701661
 -0.0809401
 -0.0953901
 -0.095491
 -0.107734
 -0.10378
 -0.0978781
 -0.0969517
 -0.0859197
 -0.0684133
 -0.0637281
 -0.0834688
 -0.0924352
 -0.100592
 -0.108922
 -0.107019
 -0.100452
 -0.095243
 -0.0828587
 -0.0732228
 -0.0796389
 -0.105015
 -0.118789
 -0.124093
 -0.134708
 -0.139989
 -0.129809
 -0.116844
 -0.099024
 -0.0787472
 -0.0932487
 -0.114953
 -0.135699
 -0.146619
 -0.154546
 -0.151814
 -0.149177
 -0.136224
 -0.119544
 -0.0912276
 -0.10064
 -0.130646
 -0.151136
 -0.165651
 -0.175634
 -0.17041
 -0.167866
 -0.141773
 -0.133324
 -0.107514
 -0.110082
 -0.133094
 -0.15325
 -0.174964
 -0.17752
 -0.176362
 -0.17818
 -0.152628
 -0.135777
 -0.10809
 -0.104402
 -0.13407
 -0.159803
 -0.176461
 -0.181507
 -0.178997
 -0.173701
 -0.154259
 -0.129906
 -0.0979267
 -0.101326
 -0.125135
 -0.151345
 -0.160665
 -0.174665
 -0.166678
 -0.164015
 -0.149846
 -0.125437
 -0.103648
 -0.0873914
 -0.117774
 -0.137156
 -0.147166
 -0.154401
 -0.15652
 -0.146436
 -0.138716
 -0.111918
 -0.0927363
 -0.0812436
 -0.106179
 -0.113714
 -0.126281
 -0.131351
 -0.136784
 -0.123069
 -0.124202
 -0.104789
 -0.0850682
 -0.0676983
 -0.0836452
 -0.0927502
 -0.103951
 -0.109132
 -0.0998856
 -0.101227
 -0.0943365
 -0.0909094
 -0.0665543
 -0.0658571
 -0.0830657
 -0.091951
 -0.0986493
 -0.106137
 -0.10949
 -0.102618
 -0.0921835
 -0.084928
 -0.0698856
 -0.0832401
 -0.0980845
 -0.115828
 -0.12183
 -0.132664
 -0.128756
 -0.124076
 -0.114859
 -0.103273
 -0.0812095
 -0.0924642
 -0.114207
 -0.126661
 -0.143426
 -0.149522
 -0.153036
 -0.152377
 -0.125602
 -0.115864
 -0.0943181
 -0.0960929
 -0.129236
 -0.14573
 -0.164232
 -0.17208
 -0.175235
 -0.166055
 -0.149601
 -0.128566
 -0.103157
 -0.107367
 -0.13099
 -0.154317
 -0.180943
 -0.18573
 -0.186444
 -0.169519
 -0.160593
 -0.136261
 -0.107479
 -0.099362
 -0.131372
 -0.154847
 -0.176705
 -0.185089
 -0.181906
 -0.171744
 -0.159376
 -0.129926
 -0.115387
 -0.103441
 -0.129823
 -0.150614
 -0.164049
 -0.176
 -0.166732
 -0.167188
 -0.147115
 -0.127787
 -0.103358
 -0.0918303
 -0.120067
 -0.127359
 -0.146684
 -0.157401
 -0.15523
 -0.148228
 -0.133393
 -0.11344
 -0.0928798
 -0.088074
 -0.100262
 -0.11577
 -0.13122
 -0.131632
 -0.12902
 -0.126745
 -0.116375
 -0.101368
 -0.0820203
 -0.0664404
 -0.0836763
 -0.0938757
 -0.102944
 -0.108403
 -0.105183
 -0.0990399
 -0.090193
 -0.0768549
 -0.0683163
 -0.0736259
 -0.0808157
 -0.0957026
 -0.105124
 -0.108435
 -0.101308
 -0.0954165
 -0.0921626
 -0.0822282
 -0.0657228
 -0.0803459
 -0.103842
 -0.117468
 -0.12313
 -0.130773
 -0.131303
 -0.126154
 -0.11481
 -0.0940207
 -0.0784606
 -0.0928852
 -0.114685
 -0.136767
 -0.149685
 -0.160124
 -0.150192
 -0.149457
 -0.134085
 -0.11801
 -0.0924491
 -0.0965854
 -0.129068
 -0.148544
 -0.164909
 -0.175759
 -0.176699
 -0.166167
 -0.149518
 -0.127745
 -0.0961896
 -0.104815
 -0.137736
 -0.155568
 -0.173466
 -0.184913
 -0.185744
 -0.175493
 -0.154519
 -0.135326
 -0.110458
 -0.103365
 -0.131763
 -0.154579
 -0.175109
 -0.181076
 -0.188231
 -0.169265
 -0.152852
 -0.131061
 -0.102523
 -0.101215
 -0.126697
 -0.145678
 -0.163439
 -0.168786
 -0.177524
 -0.166179
 -0.144723
 -0.130047
 -0.0999048
 -0.0939134
 -0.111484
 -0.13365
 -0.150662
 -0.159309
 -0.155665
 -0.147106
 -0.137587
 -0.118681
 -0.096026
 -0.0787773
 -0.1078
 -0.113334
 -0.129972
 -0.134041
 -0.127084
 -0.130448
 -0.114615
 -0.101602
 -0.0874578
 -0.0709206
 -0.0846905
 -0.0933663
 -0.100055
 -0.103086
 -0.102627
 -0.0972141
 -0.0933469
 -0.0778118
 -0.0669035
 -0.068535
 -0.0845796
 -0.0891834
 -0.100485
 -0.106007
 -0.103065
 -0.104605
 -0.089632
 -0.0882045
 -0.0650683
 -0.0849873
 -0.10369
 -0.122524
 -0.123319
 -0.138788
 -0.132575
 -0.122582
 -0.118974
 -0.100663
 -0.083375
 -0.0972863
 -0.116464
 -0.133005
 -0.150522
 -0.15604
 -0.155659
 -0.146457
 -0.135534
 -0.116155
 -0.0958543
 -0.0982967
 -0.124699
 -0.149281
 -0.169564
 -0.173615
 -0.177181
 -0.160224
 -0.152524
 -0.123093
 -0.0994598
 -0.100324
 -0.13393
 -0.161667
 -0.168659
 -0.185686
 -0.18635
 -0.17443
 -0.157072
 -0.129086
 -0.104584
 -0.100596
 -0.127002
 -0.156972
 -0.176794
 -0.1869
 -0.185617
 -0.176663
 -0.153521
 -0.142372
 -0.107159
 -0.0980247
 -0.126875
 -0.147326
 -0.157598
 -0.174923
 -0.175758
 -0.166138
 -0.14934
 -0.12664
 -0.0978887
 -0.0909184
 -0.118955
 -0.136039
 -0.149205
 -0.157239
 -0.158707
 -0.149998
 -0.131855
 -0.114178
 -0.0931362
 -0.0909882
 -0.104658
 -0.116312
 -0.131121
 -0.128791
 -0.133805
 -0.121614
 -0.116802
 -0.0985916
 -0.0827031
 -0.069222
 -0.0825974
 -0.092506
 -0.0994692
 -0.104444
 -0.102498
 -0.0934805
 -0.096445
 -0.0808548
 -0.0664231

SurfaceElement_HEAT_Q 1 600 FLOAT 
 -0.000739677
 -0.000867155
 -0.000961723
 -0.0010098
 -0.00101213
 -0.00109228
 -0.000996192
 -0.000898832
 -0.00087411
 -0.000666614
 -0.000885628
 -0.00101607
 -0.00117686
 -0.00121538
 -0.00135206
 -0.00131191
 -0.00122194
 -0.00117898
 -0.00100171
 -0.000825211
 -0.000993212
 -0.001203
 -0.00135901
 -0.00148993
 -0.00160329
 -0.00155743
 -0.00148918
 -0.00133916
 -0.00119731
 -0.000886587
 -0.00101227
 -0.00129377
 -0.00147696
 -0.00171297
 -0.00170215
 -0.00175698
 -0.00164964
 -0.00146174
 -0.00133354
 -0.00100026
 -0.00107209
 -0.0012506
 -0.00156906
 -0.00182647
 -0.00187843
 -0.00182504
 -0.0017591
 -0.00155647
 -0.0012884
 -0.00105715
 -0.00105193
 -0.00133976
 -0.00152208
 -0.00171641
 -0.00184515
 -0.00182587
 -0.00174434
 -0.00158128
 -0.00128508
 -0.00100882
 -0.000988837
 -0.0013284
 -0.00151968
 -0.00162561
 -0.00175194
 -0.00173516
 -0.00168214
 -0.00145694
 -0.0012535
 -0.000991505
 -0.000903068
 -0.00119579
 -0.00140128
 -0.00150372
 -0.00152863
 -0.00155509
 -0.00147809
 -0.00134422
 -0.00116953
 -0.00095501
 -0.000849597
 -0.000922048
 -0.00120771
 -0.00127898
 -0.00131094
 -0.00133628
 -0.00127894
 -0.00120575
 -0.00100381
 -0.000831145
 -0.000720787
 -0.000807345
 -0.000954668
 -0.0010578
 -0.00102947
 -0.00103089
 -0.000986552
 -0.000944659
 -0.000859915
 -0.000720725
 -0.000760567
 -0.000896171
 -0.000946406
 -0.00105152
 -0.00104245
 -0.00106348
 -0.00099643
 -0.000991879
 -0.000858246
 -0.000639758
 -0.000861182
 -0.000981887
 -0.00115039
 -0.00125402
 -0.00132539
 -0.00134618
 -0.00127309
 -0.00115212
 -0.0010317
 -0.000828958
 -0.000960476
 -0.00123102
 -0.00135357
 -0.00145634
 -0.00153253
 -0.00154967
 -0.00150438
 -0.00133464
 -0.00120018
 -0.000885722
 -0.00102909
 -0.00130236
 -0.00153879
 -0.0016561
 -0.00167652
 -0.00178995
 -0.00161709
 -0.00151622
 -0.00123339
 -0.00100086
 -0.00104678
 -0.00126509
 -0.00155049
 -0.00172305
 -0.00184707
 -0.00183736
 -0.00172892
 -0.00156996
 -0.00138186
 -0.00106129
 -0.00110099
 -0.0013853
 -0.00155437
 -0.00174595
 -0.00182498
 -0.00184498
 -0.00174073
 -0.00152465
 -0.00131477
 -0.00102643
 -0.00100966
 -0.0012226
 -0.00152415
 -0.00165683
 -0.00173237
 -0.00174171
 -0.00161748
 -0.00147015
 -0.00128611
 -0.000972353
 -0.000976328
 -0.00120558
 -0.00133117
 -0.00148188
 -0.00155731
 -0.00157884
 -0.00152485
 -0.00139024
 -0.001129
 -0.000885436
 -0.000855173
 -0.00100973
 -0.0012478
 -0.0012709
 -0.00129819
 -0.00125235
 -0.00128819
 -0.00117737
 -0.00105283
 -0.000789012
 -0.000701661
 -0.000809401
 -0.000953901
 -0.00095491
 -0.00107734
 -0.0010378
 -0.000978781
 -0.000969517
 -0.000859197
 -0.000684133
 -0.000637281
 -0.000834688
 -0.000924352
 -0.00100592
 -0.00108922
 -0.00107019
 -0.00100452
 -0.00095243
 -0.000828587
 -0.000732228
 -0.000796389
 -0.00105015
 -0.00118789
 -0.00124093
 -0.00134708
 -0.00139989
 -0.00129809
 -0.00116844
 -0.00099024
 -0.000787472
 -0.000932487
 -0.00114953
 -0.00135699
 -0.00146619
 -0.00154546
 -0.00151814
 -0.00149177
 -0.00136224
 -0.00119544
 -0.000912276
 -0.0010064
 -0.00130646
 -0.00151136
 -0.00165651
 -0.00175634
 -0.0017041
 -0.00167866
 -0.00141773
 -0.00133324
 -0.00107514
 -0.00110082
 -0.00133094
 -0.0015325
 -0.00174964
 -0.0017752
 -0.00176362
 -0.0017818
 -0.00152628
 -0.00135777
 -0.0010809
 -0.00104402
 -0.0013407
 -0.00159803
 -0.00176461
 -0.00181507
 -0.00178997
 -0.00173701
 -0.00154259
 -0.00129906
 -0.000979267
 -0.00101326
 -0.00125135
 -0.00151345
 -0.00160665
 -0.00174665
 -0.00166678
 -0.00164015
 -0.00149846
 -0.00125437
 -0.00103648
 -0.000873914
 -0.00117774
 -0.00137156
 -0.00147166
 -0.00154401
 -0.0015652
 -0.00146436
 -0.00138716
 -0.00111918
 -0.000927363
 -0.000812436
 -0.00106179
 -0.00113714
 -0.00126281
 -0.00131351
 -0.00136784
 -0.00123069
 -0.00124202
 -0.00104789
 -0.000850682
 -0.000676983
 -0.000836452
 -0.000927502
 -0.00103951
 -0.00109132
 -0.000998856
 -0.00101227
 -0.000943365
 -0.000909094
 -0.000665543
 -0.000658571
 -0.000830657
 -0.00091951
 -0.000986493
 -0.00106137
 -0.0010949
 -0.00102618
 -0.000921835
 -0.00084928
 -0.000698856
 -0.000832401
 -0.000980845
 -0.00115828
 -0.0012183
 -0.00132664
 -0.00128756
 -0.00124076
 -0.00114859
 -0.00103273
 -0.000812095
 -0.000924642
 -0.00114207
 -0.00126661
 -0.00143426
 -0.00149522
 -0.00153036
 -0.00152377
 -0.00125602
 -0.00115864
 -0.000943181
 -0.000960929
 -0.00129236
 -0.0014573
 -0.00164232
 -0.0017208
 -0.00175235
 -0.00166055
 -0.00149601
 -0.00128566
 -0.00103157
 -0.00107367
 -0.0013099
 -0.00154317
 -0.00180943
 -0.0018573
 -0.00186444
 -0.00169519
 -0.00160593
 -0.00136261
 -0.00107479
 -0.00099362
 -0.00131372
 -0.00154847
 -0.00176705
 -0.00185089
 -0.00181906
 -0.00171744
 -0.00159376
 -0.00129926
 -0.00115387
 -0.00103441
 -0.00129823
 -0.00150614
 -0.00164049
 -0.00176
 -0.00166732
 -0.00167188
 -0.00147115
 -0.00127787
 -0.00103358
 -0.000918303
 -0.00120067
 -0.00127359
 -0.00146684
 -0.00157401
 -0.0015523
 -0.00148228
 -0.00133393
 -0.0011344
 -0.000928798
 -0.00088074
 -0.00100262
 -0.0011577
 -0.0013122
 -0.00131632
 -0.0012902
 -0.00126745
 -0.00116375
 -0.00101368
 -0.000820203
 -0.000664404
 -0.000836763
 -0.000938757
 -0.00102944
 -0.00108403
 -0.00105183
 -0.000990399
 -0.00090193
 -0.000768549
 -0.000683163
 -0.000736259
 -0.000808157
 -0.000957026
 -0.00105124
 -0.00108435
 -0.00101308
 -0.000954165
 -0.000921626
 -0.000822282
 -0.000657228
 -0.000803459
 -0.00103842
 -0.00117468
 -0.0012313
 -0.00130773
 -0.00131303
 -0.00126154
 -0.0011481
 -0.000940207
 -0.000784606
 -0.000928852
 -0.00114685
 -0.00136767
 -0.00149685
 -0.00160124
 -0.00150192
 -0.00149457
 -0.00134085
 -0.0011801
 -0.000924491
 -0.000965854
 -0.00129068
 -0.00148544
 -0.00164909
 -0.00175759
 -0.00176699
 -0.00166167
 -0.00149518
 -0.00127745
 -0.000961896
 -0.00104815
 -0.00137736
 -0.00155568
 -0.00173466
 -0.00184913
 -0.00185744
 -0.00175493
 -0.00154519
 -0.00135326
 -0.00110458
 -0.00103365
 -0.00131763
 -0.00154579
 -0.00175109
 -0.00181076
 -0.00188231
 -0.00169265
 -0.00152852
 -0.00131061
 -0.00102523
 -0.00101215
 -0.00126697
 -0.00145678
 -0.00163439
 -0.00168786
 -0.00177524
 -0.00166179
 -0.00144723
 -0.00130047
 -0.000999048
 -0.000939134
 -0.00111484
 -0.0013365
 -0.00150662
 -0.00159309
 -0.00155665
 -0.00147106
 -0.00137587
 -0.00118681
 -0.00096026
 -0.000787773
 -0.001078
 -0.00113334
 -0.00129972
 -0.00134041
 -0.00127084
 -0.00130448
 -0.00114615
 -0.00101602
 -0.000874578
 -0.000709206
 -0.000846905
 -0.000933663
 -0.00100055
 -0.00103086
 -0.00102627
 -0.000972141
 -0.000933469
 -0.000778118
 -0.000669035
 -0.00068535
 -0.000845796
 -0.000891834
 -0.00100485
 -0.00106007
 -0.00103065
 -0.00104605
 -0.00089632
 -0.000882045
 -0.000650683
 -0.000849873
 -0.0010369
 -0.00122524
 -0.00123319
 -0.00138788
 -0.00132575
 -0.00122582
 -0.00118974
 -0.00100663
 -0.00083375
 -0.000972863
 -0.00116464
 -0.00133005
 -0.00150522
 -0.0015604
 -0.00155659
 -0.00146457
 -0.00135534
 -0.00116155
 -0.000958543
 -0.000982967
 -0.00124699
 -0.00149281
 -0.00169564
 -0.00173615
 -0.00177181
 -0.00160224
 -0.00152524
 -0.00123093
 -0.000994598
 -0.00100324
 -0.0013393
 -0.00161667
 -0.00168659
 -0.00185686
 -0.0018635
 -0.0017443
 -0.00157072
 -0.00129086
 -0.00104584
 -0.00100596
 -0.00127002
 -0.00156972
 -0.00176794
 -0.001869
 -0.00185617
 -0.00176663
 -0.00153521
 -0.00142372
 -0.00107159
 -0.000980247
 -0.00126875
 -0.00147326
 -0.00157598
 -0.00174923
 -0.00175758
 -0.00166138
 -0.0014934
 -0.0012664
 -0.000978887
 -0.000909184
 -0.00118955
 -0.00136039
 -0.00149205
 -0.00157239
 -0.00158707
 -0.00149998
 -0.00131855
 -0.00114178
 -0.000931362
 -0.000909882
 -0.00104658
 -0.00116312
 -0.00131121
 -0.00128791
 -0.00133805
 -0.00121614
 -0.00116802
 -0.000985916
 -0.000827031
 -0.00069222
 -0.000825974
 -0.00092506
 -0.000994692
 -0.00104444
 -0.00102498
 -0.000934805
 -0.00096445
 -0.000808548
 -0.000664231
