# vtk DataFile Version 2.0
Three-D cube surface heat flux and Q display
ASCII
DATASET UNSTRUCTURED_GRID

POINTS 602 FLOAT 
 -0.5 -0.5 -0.5
 -0.4 -0.5 -0.5
 -0.3 -0.5 -0.5
 -0.2 -0.5 -0.5
 -0.1 -0.5 -0.5
 0 -0.5 -0.5
 0.1 -0.5 -0.5
 0.2 -0.5 -0.5
 0.3 -0.5 -0.5
 0.4 -0.5 -0.5
 0.5 -0.5 -0.5
 -0.5 -0.4 -0.5
 -0.4 -0.4 -0.5
 -0.3 -0.4 -0.5
 -0.2 -0.4 -0.5
 -0.1 -0.4 -0.5
 0 -0.4 -0.5
 0.1 -0.4 -0.5
 0.2 -0.4 -0.5
 0.3 -0.4 -0.5
 0.4 -0.4 -0.5
 0.5 -0.4 -0.5
 -0.5 -0.3 -0.5
 -0.4 -0.3 -0.5
 -0.3 -0.3 -0.5
 -0.2 -0.3 -0.5
 -0.1 -0.3 -0.5
 0 -0.3 -0.5
 0.1 -0.3 -0.5
 0.2 -0.3 -0.5
 0.3 -0.3 -0.5
 0.4 -0.3 -0.5
 0.5 -0.3 -0.5
 -0.5 -0.2 -0.5
 -0.4 -0.2 -0.5
 -0.3 -0.2 -0.5
 -0.2 -0.2 -0.5
 -0.1 -0.2 -0.5
 0 -0.2 -0.5
 0.1 -0.2 -0.5
 0.2 -0.2 -0.5
 0.3 -0.2 -0.5
 0.4 -0.2 -0.5
 0.5 -0.2 -0.5
 -0.5 -0.1 -0.5
 -0.4 -0.1 -0.5
 -0.3 -0.1 -0.5
 -0.2 -0.1 -0.5
 -0.1 -0.1 -0.5
 0 -0.1 -0.5
 0.1 -0.1 -0.5
 0.2 -0.1 -0.5
 0.3 -0.1 -0.5
 0.4 -0.1 -0.5
 0.5 -0.1 -0.5
 -0.5 0 -0.5
 -0.4 0 -0.5
 -0.3 0 -0.5
 -0.2 0 -0.5
 -0.1 0 -0.5
 0 0 -0.5
 0.1 0 -0.5
 0.2 0 -0.5
 0.3 0 -0.5
 0.4 0 -0.5
 0.5 0 -0.5
 -0.5 0.1 -0.5
 -0.4 0.1 -0.5
 -0.3 0.1 -0.5
 -0.2 0.1 -0.5
 -0.1 0.1 -0.5
 0 0.1 -0.5
 0.1 0.1 -0.5
 0.2 0.1 -0.5
 0.3 0.1 -0.5
 0.4 0.1 -0.5
 0.5 0.1 -0.5
 -0.5 0.2 -0.5
 -0.4 0.2 -0.5
 -0.3 0.2 -0.5
 -0.2 0.2 -0.5
 -0.1 0.2 -0.5
 0 0.2 -0.5
 0.1 0.2 -0.5
 0.2 0.2 -0.5
 0.3 0.2 -0.5
 0.4 0.2 -0.5
 0.5 0.2 -0.5
 -0.5 0.3 -0.5
 -0.4 0.3 -0.5
 -0.3 0.3 -0.5
 -0.2 0.3 -0.5
 -0.1 0.3 -0.5
 0 0.3 -0.5
 0.1 0.3 -0.5
 0.2 0.3 -0.5
 0.3 0.3 -0.5
 0.4 0.3 -0.5
 0.5 0.3 -0.5
 -0.5 0.4 -0.5
 -0.4 0.4 -0.5
 -0.3 0.4 -0.5
 -0.2 0.4 -0.5
 -0.1 0.4 -0.5
 0 0.4 -0.5
 0.1 0.4 -0.5
 0.2 0.4 -0.5
 0.3 0.4 -0.5
 0.4 0.4 -0.5
 0.5 0.4 -0.5
 -0.5 0.5 -0.5
 -0.4 0.5 -0.5
 -0.3 0.5 -0.5
 -0.2 0.5 -0.5
 -0.1 0.5 -0.5
 0 0.5 -0.5
 0.1 0.5 -0.5
 0.2 0.5 -0.5
 0.3 0.5 -0.5
 0.4 0.5 -0.5
 0.5 0.5 -0.5
 -0.5 -0.5 0.5
 -0.4 -0.5 0.5
 -0.3 -0.5 0.5
 -0.2 -0.5 0.5
 -0.1 -0.5 0.5
 0 -0.5 0.5
 0.1 -0.5 0.5
 0.2 -0.5 0.5
 0.3 -0.5 0.5
 0.4 -0.5 0.5
 0.5 -0.5 0.5
 -0.5 -0.4 0.5
 -0.4 -0.4 0.5
 -0.3 -0.4 0.5
 -0.2 -0.4 0.5
 -0.1 -0.4 0.5
 0 -0.4 0.5
 0.1 -0.4 0.5
 0.2 -0.4 0.5
 0.3 -0.4 0.5
 0.4 -0.4 0.5
 0.5 -0.4 0.5
 -0.5 -0.3 0.5
 -0.4 -0.3 0.5
 -0.3 -0.3 0.5
 -0.2 -0.3 0.5
 -0.1 -0.3 0.5
 0 -0.3 0.5
 0.1 -0.3 0.5
 0.2 -0.3 0.5
 0.3 -0.3 0.5
 0.4 -0.3 0.5
 0.5 -0.3 0.5
 -0.5 -0.2 0.5
 -0.4 -0.2 0.5
 -0.3 -0.2 0.5
 -0.2 -0.2 0.5
 -0.1 -0.2 0.5
 0 -0.2 0.5
 0.1 -0.2 0.5
 0.2 -0.2 0.5
 0.3 -0.2 0.5
 0.4 -0.2 0.5
 0.5 -0.2 0.5
 -0.5 -0.1 0.5
 -0.4 -0.1 0.5
 -0.3 -0.1 0.5
 -0.2 -0.1 0.5
 -0.1 -0.1 0.5
 0 -0.1 0.5
 0.1 -0.1 0.5
 0.2 -0.1 0.5
 0.3 -0.1 0.5
 0.4 -0.1 0.5
 0.5 -0.1 0.5
 -0.5 0 0.5
 -0.4 0 0.5
 -0.3 0 0.5
 -0.2 0 0.5
 -0.1 0 0.5
 0 0 0.5
 0.1 0 0.5
 0.2 0 0.5
 0.3 0 0.5
 0.4 0 0.5
 0.5 0 0.5
 -0.5 0.1 0.5
 -0.4 0.1 0.5
 -0.3 0.1 0.5
 -0.2 0.1 0.5
 -0.1 0.1 0.5
 0 0.1 0.5
 0.1 0.1 0.5
 0.2 0.1 0.5
 0.3 0.1 0.5
 0.4 0.1 0.5
 0.5 0.1 0.5
 -0.5 0.2 0.5
 -0.4 0.2 0.5
 -0.3 0.2 0.5
 -0.2 0.2 0.5
 -0.1 0.2 0.5
 0 0.2 0.5
 0.1 0.2 0.5
 0.2 0.2 0.5
 0.3 0.2 0.5
 0.4 0.2 0.5
 0.5 0.2 0.5
 -0.5 0.3 0.5
 -0.4 0.3 0.5
 -0.3 0.3 0.5
 -0.2 0.3 0.5
 -0.1 0.3 0.5
 0 0.3 0.5
 0.1 0.3 0.5
 0.2 0.3 0.5
 0.3 0.3 0.5
 0.4 0.3 0.5
 0.5 0.3 0.5
 -0.5 0.4 0.5
 -0.4 0.4 0.5
 -0.3 0.4 0.5
 -0.2 0.4 0.5
 -0.1 0.4 0.5
 0 0.4 0.5
 0.1 0.4 0.5
 0.2 0.4 0.5
 0.3 0.4 0.5
 0.4 0.4 0.5
 0.5 0.4 0.5
 -0.5 0.5 0.5
 -0.4 0.5 0.5
 -0.3 0.5 0.5
 -0.2 0.5 0.5
 -0.1 0.5 0.5
 0 0.5 0.5
 0.1 0.5 0.5
 0.2 0.5 0.5
 0.3 0.5 0.5
 0.4 0.5 0.5
 0.5 0.5 0.5
 -0.5 0.5 -0.4
 -0.4 0.5 -0.4
 -0.3 0.5 -0.4
 -0.2 0.5 -0.4
 -0.1 0.5 -0.4
 0 0.5 -0.4
 0.1 0.5 -0.4
 0.2 0.5 -0.4
 0.3 0.5 -0.4
 0.4 0.5 -0.4
 0.5 0.5 -0.4
 -0.5 0.5 -0.3
 -0.4 0.5 -0.3
 -0.3 0.5 -0.3
 -0.2 0.5 -0.3
 -0.1 0.5 -0.3
 0 0.5 -0.3
 0.1 0.5 -0.3
 0.2 0.5 -0.3
 0.3 0.5 -0.3
 0.4 0.5 -0.3
 0.5 0.5 -0.3
 -0.5 0.5 -0.2
 -0.4 0.5 -0.2
 -0.3 0.5 -0.2
 -0.2 0.5 -0.2
 -0.1 0.5 -0.2
 0 0.5 -0.2
 0.1 0.5 -0.2
 0.2 0.5 -0.2
 0.3 0.5 -0.2
 0.4 0.5 -0.2
 0.5 0.5 -0.2
 -0.5 0.5 -0.1
 -0.4 0.5 -0.1
 -0.3 0.5 -0.1
 -0.2 0.5 -0.1
 -0.1 0.5 -0.1
 0 0.5 -0.1
 0.1 0.5 -0.1
 0.2 0.5 -0.1
 0.3 0.5 -0.1
 0.4 0.5 -0.1
 0.5 0.5 -0.1
 -0.5 0.5 0
 -0.4 0.5 0
 -0.3 0.5 0
 -0.2 0.5 0
 -0.1 0.5 0
 0 0.5 0
 0.1 0.5 0
 0.2 0.5 0
 0.3 0.5 0
 0.4 0.5 0
 0.5 0.5 0
 -0.5 0.5 0.1
 -0.4 0.5 0.1
 -0.3 0.5 0.1
 -0.2 0.5 0.1
 -0.1 0.5 0.1
 0 0.5 0.1
 0.1 0.5 0.1
 0.2 0.5 0.1
 0.3 0.5 0.1
 0.4 0.5 0.1
 0.5 0.5 0.1
 -0.5 0.5 0.2
 -0.4 0.5 0.2
 -0.3 0.5 0.2
 -0.2 0.5 0.2
 -0.1 0.5 0.2
 0 0.5 0.2
 0.1 0.5 0.2
 0.2 0.5 0.2
 0.3 0.5 0.2
 0.4 0.5 0.2
 0.5 0.5 0.2
 -0.5 0.5 0.3
 -0.4 0.5 0.3
 -0.3 0.5 0.3
 -0.2 0.5 0.3
 -0.1 0.5 0.3
 0 0.5 0.3
 0.1 0.5 0.3
 0.2 0.5 0.3
 0.3 0.5 0.3
 0.4 0.5 0.3
 0.5 0.5 0.3
 -0.5 0.5 0.4
 -0.4 0.5 0.4
 -0.3 0.5 0.4
 -0.2 0.5 0.4
 -0.1 0.5 0.4
 0 0.5 0.4
 0.1 0.5 0.4
 0.2 0.5 0.4
 0.3 0.5 0.4
 0.4 0.5 0.4
 0.5 0.5 0.4
 -0.5 -0.5 -0.4
 -0.4 -0.5 -0.4
 -0.3 -0.5 -0.4
 -0.2 -0.5 -0.4
 -0.1 -0.5 -0.4
 0 -0.5 -0.4
 0.1 -0.5 -0.4
 0.2 -0.5 -0.4
 0.3 -0.5 -0.4
 0.4 -0.5 -0.4
 0.5 -0.5 -0.4
 -0.5 -0.5 -0.3
 -0.4 -0.5 -0.3
 -0.3 -0.5 -0.3
 -0.2 -0.5 -0.3
 -0.1 -0.5 -0.3
 0 -0.5 -0.3
 0.1 -0.5 -0.3
 0.2 -0.5 -0.3
 0.3 -0.5 -0.3
 0.4 -0.5 -0.3
 0.5 -0.5 -0.3
 -0.5 -0.5 -0.2
 -0.4 -0.5 -0.2
 -0.3 -0.5 -0.2
 -0.2 -0.5 -0.2
 -0.1 -0.5 -0.2
 0 -0.5 -0.2
 0.1 -0.5 -0.2
 0.2 -0.5 -0.2
 0.3 -0.5 -0.2
 0.4 -0.5 -0.2
 0.5 -0.5 -0.2
 -0.5 -0.5 -0.1
 -0.4 -0.5 -0.1
 -0.3 -0.5 -0.1
 -0.2 -0.5 -0.1
 -0.1 -0.5 -0.1
 0 -0.5 -0.1
 0.1 -0.5 -0.1
 0.2 -0.5 -0.1
 0.3 -0.5 -0.1
 0.4 -0.5 -0.1
 0.5 -0.5 -0.1
 -0.5 -0.5 0
 -0.4 -0.5 0
 -0.3 -0.5 0
 -0.2 -0.5 0
 -0.1 -0.5 0
 0 -0.5 0
 0.1 -0.5 0
 0.2 -0.5 0
 0.3 -0.5 0
 0.4 -0.5 0
 0.5 -0.5 0
 -0.5 -0.5 0.1
 -0.4 -0.5 0.1
 -0.3 -0.5 0.1
 -0.2 -0.5 0.1
 -0.1 -0.5 0.1
 0 -0.5 0.1
 0.1 -0.5 0.1
 0.2 -0.5 0.1
 0.3 -0.5 0.1
 0.4 -0.5 0.1
 0.5 -0.5 0.1
 -0.5 -0.5 0.2
 -0.4 -0.5 0.2
 -0.3 -0.5 0.2
 -0.2 -0.5 0.2
 -0.1 -0.5 0.2
 0 -0.5 0.2
 0.1 -0.5 0.2
 0.2 -0.5 0.2
 0.3 -0.5 0.2
 0.4 -0.5 0.2
 0.5 -0.5 0.2
 -0.5 -0.5 0.3
 -0.4 -0.5 0.3
 -0.3 -0.5 0.3
 -0.2 -0.5 0.3
 -0.1 -0.5 0.3
 0 -0.5 0.3
 0.1 -0.5 0.3
 0.2 -0.5 0.3
 0.3 -0.5 0.3
 0.4 -0.5 0.3
 0.5 -0.5 0.3
 -0.5 -0.5 0.4
 -0.4 -0.5 0.4
 -0.3 -0.5 0.4
 -0.2 -0.5 0.4
 -0.1 -0.5 0.4
 0 -0.5 0.4
 0.1 -0.5 0.4
 0.2 -0.5 0.4
 0.3 -0.5 0.4
 0.4 -0.5 0.4
 0.5 -0.5 0.4
 -0.5 -0.4 -0.4
 -0.5 -0.3 -0.4
 -0.5 -0.2 -0.4
 -0.5 -0.1 -0.4
 -0.5 0 -0.4
 -0.5 0.1 -0.4
 -0.5 0.2 -0.4
 -0.5 0.3 -0.4
 -0.5 0.4 -0.4
 -0.5 -0.4 -0.3
 -0.5 -0.3 -0.3
 -0.5 -0.2 -0.3
 -0.5 -0.1 -0.3
 -0.5 0 -0.3
 -0.5 0.1 -0.3
 -0.5 0.2 -0.3
 -0.5 0.3 -0.3
 -0.5 0.4 -0.3
 -0.5 -0.4 -0.2
 -0.5 -0.3 -0.2
 -0.5 -0.2 -0.2
 -0.5 -0.1 -0.2
 -0.5 0 -0.2
 -0.5 0.1 -0.2
 -0.5 0.2 -0.2
 -0.5 0.3 -0.2
 -0.5 0.4 -0.2
 -0.5 -0.4 -0.1
 -0.5 -0.3 -0.1
 -0.5 -0.2 -0.1
 -0.5 -0.1 -0.1
 -0.5 0 -0.1
 -0.5 0.1 -0.1
 -0.5 0.2 -0.1
 -0.5 0.3 -0.1
 -0.5 0.4 -0.1
 -0.5 -0.4 0
 -0.5 -0.3 0
 -0.5 -0.2 0
 -0.5 -0.1 0
 -0.5 0 0
 -0.5 0.1 0
 -0.5 0.2 0
 -0.5 0.3 0
 -0.5 0.4 0
 -0.5 -0.4 0.1
 -0.5 -0.3 0.1
 -0.5 -0.2 0.1
 -0.5 -0.1 0.1
 -0.5 0 0.1
 -0.5 0.1 0.1
 -0.5 0.2 0.1
 -0.5 0.3 0.1
 -0.5 0.4 0.1
 -0.5 -0.4 0.2
 -0.5 -0.3 0.2
 -0.5 -0.2 0.2
 -0.5 -0.1 0.2
 -0.5 0 0.2
 -0.5 0.1 0.2
 -0.5 0.2 0.2
 -0.5 0.3 0.2
 -0.5 0.4 0.2
 -0.5 -0.4 0.3
 -0.5 -0.3 0.3
 -0.5 -0.2 0.3
 -0.5 -0.1 0.3
 -0.5 0 0.3
 -0.5 0.1 0.3
 -0.5 0.2 0.3
 -0.5 0.3 0.3
 -0.5 0.4 0.3
 -0.5 -0.4 0.4
 -0.5 -0.3 0.4
 -0.5 -0.2 0.4
 -0.5 -0.1 0.4
 -0.5 0 0.4
 -0.5 0.1 0.4
 -0.5 0.2 0.4
 -0.5 0.3 0.4
 -0.5 0.4 0.4
 0.5 -0.4 -0.4
 0.5 -0.3 -0.4
 0.5 -0.2 -0.4
 0.5 -0.1 -0.4
 0.5 0 -0.4
 0.5 0.1 -0.4
 0.5 0.2 -0.4
 0.5 0.3 -0.4
 0.5 0.4 -0.4
 0.5 -0.4 -0.3
 0.5 -0.3 -0.3
 0.5 -0.2 -0.3
 0.5 -0.1 -0.3
 0.5 0 -0.3
 0.5 0.1 -0.3
 0.5 0.2 -0.3
 0.5 0.3 -0.3
 0.5 0.4 -0.3
 0.5 -0.4 -0.2
 0.5 -0.3 -0.2
 0.5 -0.2 -0.2
 0.5 -0.1 -0.2
 0.5 0 -0.2
 0.5 0.1 -0.2
 0.5 0.2 -0.2
 0.5 0.3 -0.2
 0.5 0.4 -0.2
 0.5 -0.4 -0.1
 0.5 -0.3 -0.1
 0.5 -0.2 -0.1
 0.5 -0.1 -0.1
 0.5 0 -0.1
 0.5 0.1 -0.1
 0.5 0.2 -0.1
 0.5 0.3 -0.1
 0.5 0.4 -0.1
 0.5 -0.4 0
 0.5 -0.3 0
 0.5 -0.2 0
 0.5 -0.1 0
 0.5 0 0
 0.5 0.1 0
 0.5 0.2 0
 0.5 0.3 0
 0.5 0.4 0
 0.5 -0.4 0.1
 0.5 -0.3 0.1
 0.5 -0.2 0.1
 0.5 -0.1 0.1
 0.5 0 0.1
 0.5 0.1 0.1
 0.5 0.2 0.1
 0.5 0.3 0.1
 0.5 0.4 0.1
 0.5 -0.4 0.2
 0.5 -0.3 0.2
 0.5 -0.2 0.2
 0.5 -0.1 0.2
 0.5 0 0.2
 0.5 0.1 0.2
 0.5 0.2 0.2
 0.5 0.3 0.2
 0.5 0.4 0.2
 0.5 -0.4 0.3
 0.5 -0.3 0.3
 0.5 -0.2 0.3
 0.5 -0.1 0.3
 0.5 0 0.3
 0.5 0.1 0.3
 0.5 0.2 0.3
 0.5 0.3 0.3
 0.5 0.4 0.3
 0.5 -0.4 0.4
 0.5 -0.3 0.4
 0.5 -0.2 0.4
 0.5 -0.1 0.4
 0.5 0 0.4
 0.5 0.1 0.4
 0.5 0.2 0.4
 0.5 0.3 0.4
 0.5 0.4 0.4

CELLS 600 3000
 4 0 1 12 11
 4 1 2 13 12
 4 2 3 14 13
 4 3 4 15 14
 4 4 5 16 15
 4 5 6 17 16
 4 6 7 18 17
 4 7 8 19 18
 4 8 9 20 19
 4 9 10 21 20
 4 11 12 23 22
 4 12 13 24 23
 4 13 14 25 24
 4 14 15 26 25
 4 15 16 27 26
 4 16 17 28 27
 4 17 18 29 28
 4 18 19 30 29
 4 19 20 31 30
 4 20 21 32 31
 4 22 23 34 33
 4 23 24 35 34
 4 24 25 36 35
 4 25 26 37 36
 4 26 27 38 37
 4 27 28 39 38
 4 28 29 40 39
 4 29 30 41 40
 4 30 31 42 41
 4 31 32 43 42
 4 33 34 45 44
 4 34 35 46 45
 4 35 36 47 46
 4 36 37 48 47
 4 37 38 49 48
 4 38 39 50 49
 4 39 40 51 50
 4 40 41 52 51
 4 41 42 53 52
 4 42 43 54 53
 4 44 45 56 55
 4 45 46 57 56
 4 46 47 58 57
 4 47 48 59 58
 4 48 49 60 59
 4 49 50 61 60
 4 50 51 62 61
 4 51 52 63 62
 4 52 53 64 63
 4 53 54 65 64
 4 55 56 67 66
 4 56 57 68 67
 4 57 58 69 68
 4 58 59 70 69
 4 59 60 71 70
 4 60 61 72 71
 4 61 62 73 72
 4 62 63 74 73
 4 63 64 75 74
 4 64 65 76 75
 4 66 67 78 77
 4 67 68 79 78
 4 68 69 80 79
 4 69 70 81 80
 4 70 71 82 81
 4 71 72 83 82
 4 72 73 84 83
 4 73 74 85 84
 4 74 75 86 85
 4 75 76 87 86
 4 77 78 89 88
 4 78 79 90 89
 4 79 80 91 90
 4 80 81 92 91
 4 81 82 93 92
 4 82 83 94 93
 4 83 84 95 94
 4 84 85 96 95
 4 85 86 97 96
 4 86 87 98 97
 4 88 89 100 99
 4 89 90 101 100
 4 90 91 102 101
 4 91 92 103 102
 4 92 93 104 103
 4 93 94 105 104
 4 94 95 106 105
 4 95 96 107 106
 4 96 97 108 107
 4 97 98 109 108
 4 99 100 111 110
 4 100 101 112 111
 4 101 102 113 112
 4 102 103 114 113
[...]
CELL_DATA 600
FIELD DOMAIN 2
SurfaceElement_HEAT_FLUX_q 1 600 FLOAT
 0.74378
 0.72341
 0.730434
 0.71363
 0.709367
 0.687964
 0.706857
 0.718782
 0.745669
 0.761016
 0.730841
 0.735415
 0.715737
 0.686355
 0.703276
 0.706285
 0.706378
 0.715471
 0.736437
 0.718239
 0.750162
 0.740158
 0.709657
 0.703903
 0.69481
 0.707178
 0.685845
 0.719893
 0.744399
 0.735799
 0.767935
 0.709646
 0.717366
 0.705885
 0.710539
 0.719065
 0.717132
 0.714755
 0.731015
 0.738376
 0.741333
 0.733635
 0.72436
 0.710691
 0.706583
 0.720903
 0.705069
 0.716313
 0.734285
 0.761167
 0.750322
 0.727676
 0.711504
 0.719355
 0.726029
 0.70081
 0.717246
 0.705896
 0.733805
 0.737793
 0.765462
 0.730197
 0.728731
 0.714512
 0.714271
 0.700057
 0.695511
 0.725233
 0.716547
 0.760602
 0.746257
 0.736626
 0.73349
 0.716993
 0.714286
 0.69347
 0.700359
 0.730918
 0.721302
 0.739087
 0.749366
 0.7324
 0.71337
 0.701142
 0.700125
 0.715593
 0.706286
 0.720756
 0.740633
 0.762693
 0.73801
 0.74244
 0.719757
 0.70279
 0.708072
 0.720194
 0.728628
 0.703758
 0.732569
 0.772406
 0.753876
 0.715428
 0.72565
 0.710544
 0.701694
 0.710074
 0.712174
 0.694618
 0.721262
 0.744293
 0.757162
 0.734496
 0.715364
 0.721936
 0.699249
 0.71001
 0.713926
 0.722515
 0.726902
 0.757625
 0.747357
 0.759749
 0.721602
 0.698137
 0.703614
 0.700387
 0.714146
 0.734235
 0.744073
 0.785687
 0.758746
 0.734782
 0.722879
 0.69621
 0.704854
 0.687636
 0.705263
 0.713532
 0.740429
 0.753196
 0.750337
 0.732028
 0.725423
 0.722277
 0.693886
 0.677129
 0.711299
 0.715253
 0.731727
 0.75674
 0.751553
 0.750092
 0.716861
 0.714389
 0.711845
 0.723741
 0.706192
 0.719299
 0.734164
 0.752011
 0.743451
 0.741652
 0.733025
 0.728616
 0.714946
 0.695573
 0.712521
 0.708404
 0.722965
 0.752767
 0.752295
 0.735975
 0.721783
 0.700434
 0.715184
 0.693381
 0.706359
 0.728869
 0.719857
 0.743071
 0.755926
 0.734979
 0.714129
 0.69656
 0.694915
 0.701952
 0.681327
 0.727064
 0.730475
 0.757212
 0.750706
 0.7153
 0.707123
 0.707928
 0.697942
 0.682014
 0.699218
 0.704023
 0.727789
 0.749684
 0
 0
 0
 0
 0
 0
 0
 0
 0
 0
 0
 0
 0
 0
 0
 0
 0
 0
 0
 0
 0
 0
 0
 0
 0
 0
 0
 0
 0
 0
 0
 0
 0
 0
 0
 0
 0
 0
 0
 0
 0
 0
 0
 0
 0
 0
 0
 0
 0
 0
 0
 0
 0
 0
 0
 0
 0
 0
 0
 0
 0
 0
 0
 0
 0
 0
 0
 0
 0
 0
 0
 0
 0
 0
 0
 0
 0
 0
 0
 0
 0
 0
 0
 0
 0
 0
 0
 0
 0
 0
 0
 0
 0
 0
 0
 0
 0
 0
 0
 0
 0
 0
 0
 0
 0
 0
 0
 0
 0
 0
 0
 0
 0
 0
 0
 0
 0
 0
 0
 0
 0
 0
 0
 0
 0
 0
 0
 0
 0
 0
 0
 0
 0
 0
 0
 0
 0
 0
 0
 0
 0
 0
 0
 0
 0
 0
 0
 0
 0
 0
 0
 0
 0
 0
 0
 0
 0
 0
 0
 0
 0
 0
 0
 0
 0
 0
 0
 0
 0
 0
 0
 0
 0
 0
 0
 0
 0
 0
 0
 0
 0
 0
 0
 0
 0
 0
 0
 0
 0
 0
 0
 0
 0
 0
 0
 0
 0
 0
 0
 0
 -0.750484
 -0.756673
 -0.795257
 -0.767402
 -0.736767
 -0.803334
 -0.734512
 -0.783358
 -0.757559
 -0.755683
 -0.738226
 -0.742947
 -0.731043
 -0.76891
 -0.74582
 -0.738402
 -0.721835
 -0.713613
 -0.744705
 -0.751504
 -0.712341
 -0.727672
 -0.702068
 -0.724961
 -0.694004
 -0.718234
 -0.694933
 -0.738419
 -0.718031
 -0.707402
 -0.706437
 -0.681309
 -0.724891
 -0.660555
 -0.694937
 -0.683667
 -0.685515
 -0.667216
 -0.729539
 -0.691803
 -0.658355
 -0.692354
 -0.651107
 -0.692928
 -0.73765
 -0.72065
 -0.699312
 -0.701577
 -0.691992
 -0.684306
 -0.687752
 -0.682344
 -0.690301
 -0.707776
 -0.694539
 -0.699915
 -0.689153
 -0.649478
 -0.644547
 -0.681694
 -0.685834
 -0.702398
 -0.690464
 -0.717826
 -0.682472
 -0.67724
 -0.669148
 -0.738268
 -0.70684
 -0.678623
 -0.703354
 -0.623242
 -0.711957
 -0.723808
 -0.700136
 -0.726445
 -0.723993
 -0.722915
 -0.749209
 -0.745607
 -0.727594
 -0.752159
 -0.736142
 -0.727785
 -0.76906
 -0.731845
 -0.738107
 -0.766937
 -0.742083
 -0.727089
 -0.767025
 -0.786695
 -0.787717
 -0.801682
 -0.785293
 -0.748678
 -0.774136
 -0.78173
 -0.791816
 -0.796344
 -0.77439
 -0.715204
 -0.773074
 -0.783069
 -0.790194
 -0.795017
 -0.761519
 -0.751961
 -0.784713
 -0.779125
 -0.774277
 -0.771258
 -0.792147
 -0.721872
 -0.733193
 -0.72968
 -0.709379
 -0.741982
 -0.741339
 -0.768328
 -0.732697
 -0.724518
 -0.71475
 -0.730058
 -0.698261
 -0.713074
 -0.706111
 -0.713279
 -0.714008
 -0.668371
 -0.699619
 -0.736663
 -0.706762
 -0.705038
 -0.69814
 -0.680846
 -0.681575
 -0.688314
 -0.740673
 -0.699702
 -0.657937
 -0.699086
 -0.666408
 -0.650597
 -0.656801
 -0.691236
 -0.719145
 -0.686598
 -0.699916
 -0.651121
 -0.677016
 -0.669621
 -0.695394
 -0.681234
 -0.67397
 -0.705225
 -0.67748
 -0.674783
 -0.69248
 -0.65567
 -0.646624
 -0.711959
 -0.702777
 -0.715725
 -0.704106
 -0.692566
 -0.71403
 -0.708605
 -0.712538
 -0.688791
 -0.696233
 -0.702463
 -0.695102
 -0.725649
 -0.740541
 -0.733646
 -0.704656
 -0.721229
 -0.733547
 -0.717236
 -0.741331
 -0.739508
 -0.739229
 -0.743436
 -0.713229
 -0.750221
 -0.750374
 -0.755423
 -0.784323
 -0.718581
 -0.785652
 -0.74941
 -0.760101
 -0.730703
 -0.749636
 -0.775535
 -0.750925
 -0.776141
 -0.788757
 -0.769381

SurfaceElement_HEAT_Q 1 600 FLOAT 
 0.0074378
 0.0072341
 0.00730434
 0.0071363
 0.00709367
 0.00687964
 0.00706857
 0.00718782
 0.00745669
 0.00761016
 0.00730841
 0.00735415
 0.00715737
 0.00686355
 0.00703276
 0.00706285
 0.00706378
 0.00715471
 0.00736437
 0.00718239
 0.00750162
 0.00740158
 0.00709657
 0.00703903
 0.0069481
 0.00707178
 0.00685845
 0.00719893
 0.00744399
 0.00735799
 0.00767935
 0.00709646
 0.00717366
 0.00705885
 0.00710539
 0.00719065
 0.00717132
 0.00714755
 0.00731015
 0.00738376
 0.00741333
 0.00733635
 0.0072436
 0.00710691
 0.00706583
 0.00720903
 0.00705069
 0.00716313
 0.00734285
 0.00761167
 0.00750322
 0.00727676
 0.00711504
 0.00719355
 0.00726029
 0.0070081
 0.00717246
 0.00705896
 0.00733805
 0.00737793
 0.00765462
 0.00730197
 0.00728731
 0.00714512
 0.00714271
 0.00700057
 0.00695511
 0.00725233
 0.00716547
 0.00760602
 0.00746257
 0.00736626
 0.0073349
 0.00716993
 0.00714286
 0.0069347
 0.00700359
 0.00730918
 0.00721302
 0.00739087
 0.00749366
 0.007324
 0.0071337
 0.00701142
 0.00700125
 0.00715593
 0.00706286
 0.00720756
 0.00740633
 0.00762693
 0.0073801
 0.0074244
 0.00719757
 0.0070279
 0.00708072
 0.00720194
 0.00728628
 0.00703758
 0.00732569
 0.00772406
 0.00753876
 0.00715428
 0.0072565
 0.00710544
 0.00701694
 0.00710074
 0.00712174
 0.00694618
 0.00721262
 0.00744293
 0.00757162
 0.00734496
 0.00715364
 0.00721936
 0.00699249
 0.0071001
 0.00713926
 0.00722515
 0.00726902
 0.00757625
 0.00747357
 0.00759749
 0.00721602
 0.00698137
 0.00703614
 0.00700387
 0.00714146
 0.00734235
 0.00744073
 0.00785687
 0.00758746
 0.00734782
 0.00722879
 0.0069621
 0.00704854
 0.00687636
 0.00705263
 0.00713532
 0.00740429
 0.00753196
 0.00750337
 0.00732028
 0.00725423
 0.00722277
 0.00693886
 0.00677129
 0.00711299
 0.00715253
 0.00731727
 0.0075674
 0.00751553
 0.00750092
 0.00716861
 0.00714389
 0.00711845
 0.00723741
 0.00706192
 0.00719299
 0.00734164
 0.00752011
 0.00743451
 0.00741652
 0.00733025
 0.00728616
 0.00714946
 0.00695573
 0.00712521
 0.00708404
 0.00722965
 0.00752767
 0.00752295
 0.00735975
 0.00721783
 0.00700434
 0.00715184
 0.00693381
 0.00706359
 0.00728869
 0.00719857
 0.00743071
 0.00755926
 0.00734979
 0.00714129
 0.0069656
 0.00694915
 0.00701952
 0.00681327
 0.00727064
 0.00730475
 0.00757212
 0.00750706
 0.007153
 0.00707123
 0.00707928
 0.00697942
 0.00682014
 0.00699218
 0.00704023
 0.00727789
 0.00749684
 0
 0
 0
 0
 0
 0
 0
 0
 0
 0
 0
 0
 0
 0
 0
 0
 0
 0
 0
 0
 0
 0
 0
 0
 0
 0
 0
 0
 0
 0
 0
 0
 0
 0
 0
 0
 0
 0
 0
 0
 0
 0
 0
 0
 0
 0
 0
 0
 0
 0
 0
 0
 0
 0
 0
 0
 0
 0
 0
 0
 0
 0
 0
 0
 0
 0
 0
 0
 0
 0
 0
 0
 0
 0
 0
 0
 0
 0
 0
 0
 0
 0
 0
 0
 0
 0
 0
 0
 0
 0
 0
 0
 0
 0
 0
 0
 0
 0
 0
 0
 0
 0
 0
 0
 0
 0
 0
 0
 0
 0
 0
 0
 0
 0
 0
 0
 0
 0
 0
 0
 0
 0
 0
 0
 0
 0
 0
 0
 0
 0
 0
 0
 0
 0
 0
 0
 0
 0
 0
 0
 0
 0
 0
 0
 0
 0
 0
 0
 0
 0
 0
 0
 0
 0
 0
 0
 0
 0
 0
 0
 0
 0
 0
 0
 0
 0
 0
 0
 0
 0
 0
 0
 0
 0
 0
 0
 0
 0
 0
 0
 0
 0
 0
 0
 0
 0
 0
 0
 0
 0
 0
 0
 0
 0
 0
 0
 0
 0
 0
 0
 -0.00750484
 -0.00756673
 -0.00795257
 -0.00767402
 -0.00736767
 -0.00803334
 -0.00734512
 -0.00783358
 -0.00757559
 -0.00755683
 -0.00738226
 -0.00742947
 -0.00731043
 -0.0076891
 -0.0074582
 -0.00738402
 -0.00721835
 -0.00713613
 -0.00744705
 -0.00751504
 -0.00712341
 -0.00727672
 -0.00702068
 -0.00724961
 -0.00694004
 -0.00718234
 -0.00694933
 -0.00738419
 -0.00718031
 -0.00707402
 -0.00706437
 -0.00681309
 -0.00724891
 -0.00660555
 -0.00694937
 -0.00683667
 -0.00685515
 -0.00667216
 -0.00729539
 -0.00691803
 -0.00658355
 -0.00692354
 -0.00651107
 -0.00692928
 -0.0073765
 -0.0072065
 -0.00699312
 -0.00701577
 -0.00691992
 -0.00684306
 -0.00687752
 -0.00682344
 -0.00690301
 -0.00707776
 -0.00694539
 -0.00699915
 -0.00689153
 -0.00649478
 -0.00644547
 -0.00681694
 -0.00685834
 -0.00702398
 -0.00690464
 -0.00717826
 -0.00682472
 -0.0067724
 -0.00669148
 -0.00738268
 -0.0070684
 -0.00678623
 -0.00703354
 -0.00623242
 -0.00711957
 -0.00723808
 -0.00700136
 -0.00726445
 -0.00723993
 -0.00722915
 -0.00749209
 -0.00745607
 -0.00727594
 -0.00752159
 -0.00736142
 -0.00727785
 -0.0076906
 -0.00731845
 -0.00738107
 -0.00766937
 -0.00742083
 -0.00727089
 -0.00767025
 -0.00786695
 -0.00787717
 -0.00801682
 -0.00785293
 -0.00748678
 -0.00774136
 -0.0078173
 -0.00791816
 -0.00796344
 -0.0077439
 -0.00715204
 -0.00773074
 -0.00783069
 -0.00790194
 -0.00795017
 -0.00761519
 -0.00751961
 -0.00784713
 -0.00779125
 -0.00774277
 -0.00771258
 -0.00792147
 -0.00721872
 -0.00733193
 -0.0072968
 -0.00709379
 -0.00741982
 -0.00741339
 -0.00768328
 -0.00732697
 -0.00724518
 -0.0071475
 -0.00730058
 -0.00698261
 -0.00713074
 -0.00706111
 -0.00713279
 -0.00714008
 -0.00668371
 -0.00699619
 -0.00736663
 -0.00706762
 -0.00705038
 -0.0069814
 -0.00680846
 -0.00681575
 -0.00688314
 -0.00740673
 -0.00699702
 -0.00657937
 -0.00699086
 -0.00666408
 -0.00650597
 -0.00656801
 -0.00691236
 -0.00719145
 -0.00686598
 -0.00699916
 -0.00651121
 -0.00677016
 -0.00669621
 -0.00695394
 -0.00681234
 -0.0067397
 -0.00705225
 -0.0067748
 -0.00674783
 -0.0069248
 -0.0065567
 -0.00646624
 -0.00711959
 -0.00702777
 -0.00715725
 -0.00704106
 -0.00692566
 -0.0071403
 -0.00708605
 -0.00712538
 -0.00688791
 -0.00696233
 -0.00702463
 -0.00695102
 -0.00725649
 -0.00740541
 -0.00733646
 -0.00704656
 -0.00721229
 -0.00733547
 -0.00717236
 -0.00741331
 -0.00739508
 -0.00739229
 -0.00743436
 -0.00713229
 -0.00750221
 -0.00750374
 -0.00755423
 -0.00784323
 -0.00718581
 -0.00785652
 -0.0074941
 -0.00760101
 -0.00730703
 -0.00749636
 -0.00775535
 -0.00750925
 -0.00776141
 -0.00788757
 -0.00769381
