# vtk DataFile Version 2.0
Three-D cube divergence of heat flux and Q in volume elements
ASCII
DATASET UNSTRUCTURED_GRID

POINTS  1331  FLOAT
 -0.5 -0.5 -0.5
 -0.4 -0.5 -0.5
 -0.3 -0.5 -0.5
 -0.2 -0.5 -0.5
 -0.1 -0.5 -0.5
 0 -0.5 -0.5
 0.1 -0.5 -0.5
 0.2 -0.5 -0.5
 0.3 -0.5 -0.5
 0.4 -0.5 -0.5
 0.5 -0.5 -0.5
 -0.5 -0.4 -0.5
 -0.4 -0.4 -0.5
 -0.3 -0.4 -0.5
 -0.2 -0.4 -0.5
 -0.1 -0.4 -0.5
 0 -0.4 -0.5
 0.1 -0.4 -0.5
 0.2 -0.4 -0.5
 0.3 -0.4 -0.5
 0.4 -0.4 -0.5
 0.5 -0.4 -0.5
 -0.5 -0.3 -0.5
 -0.4 -0.3 -0.5
 -0.3 -0.3 -0.5
 -0.2 -0.3 -0.5
 -0.1 -0.3 -0.5
 0 -0.3 -0.5
 0.1 -0.3 -0.5
 0.2 -0.3 -0.5
 0.3 -0.3 -0.5
 0.4 -0.3 -0.5
 0.5 -0.3 -0.5
 -0.5 -0.2 -0.5
 -0.4 -0.2 -0.5
 -0.3 -0.2 -0.5
 -0.2 -0.2 -0.5
 -0.1 -0.2 -0.5
 0 -0.2 -0.5
 0.1 -0.2 -0.5
 0.2 -0.2 -0.5
 0.3 -0.2 -0.5
 0.4 -0.2 -0.5
 0.5 -0.2 -0.5
 -0.5 -0.1 -0.5
 -0.4 -0.1 -0.5
 -0.3 -0.1 -0.5
 -0.2 -0.1 -0.5
 -0.1 -0.1 -0.5
 0 -0.1 -0.5
 0.1 -0.1 -0.5
 0.2 -0.1 -0.5
 0.3 -0.1 -0.5
 0.4 -0.1 -0.5
 0.5 -0.1 -0.5
 -0.5 0 -0.5
 -0.4 0 -0.5
 -0.3 0 -0.5
 -0.2 0 -0.5
 -0.1 0 -0.5
 0 0 -0.5
 0.1 0 -0.5
 0.2 0 -0.5
 0.3 0 -0.5
 0.4 0 -0.5
 0.5 0 -0.5
 -0.5 0.1 -0.5
 -0.4 0.1 -0.5
 -0.3 0.1 -0.5
 -0.2 0.1 -0.5
 -0.1 0.1 -0.5
 0 0.1 -0.5
 0.1 0.1 -0.5
 0.2 0.1 -0.5
 0.3 0.1 -0.5
 0.4 0.1 -0.5
 0.5 0.1 -0.5
 -0.5 0.2 -0.5
 -0.4 0.2 -0.5
 -0.3 0.2 -0.5
 -0.2 0.2 -0.5
 -0.1 0.2 -0.5
 0 0.2 -0.5
 0.1 0.2 -0.5
 0.2 0.2 -0.5
 0.3 0.2 -0.5
 0.4 0.2 -0.5
 0.5 0.2 -0.5
 -0.5 0.3 -0.5
 -0.4 0.3 -0.5
 -0.3 0.3 -0.5
 -0.2 0.3 -0.5
 -0.1 0.3 -0.5
 0 0.3 -0.5
 0.1 0.3 -0.5
 0.2 0.3 -0.5
 0.3 0.3 -0.5
 0.4 0.3 -0.5
 0.5 0.3 -0.5
 -0.5 0.4 -0.5
 -0.4 0.4 -0.5
 -0.3 0.4 -0.5
 -0.2 0.4 -0.5
 -0.1 0.4 -0.5
 0 0.4 -0.5
 0.1 0.4 -0.5
 0.2 0.4 -0.5
 0.3 0.4 -0.5
 0.4 0.4 -0.5
 0.5 0.4 -0.5
 -0.5 0.5 -0.5
 -0.4 0.5 -0.5
 -0.3 0.5 -0.5
 -0.2 0.5 -0.5
 -0.1 0.5 -0.5
 0 0.5 -0.5
 0.1 0.5 -0.5
 0.2 0.5 -0.5
 0.3 0.5 -0.5
 0.4 0.5 -0.5
 0.5 0.5 -0.5
 -0.5 -0.5 -0.4
 -0.4 -0.5 -0.4
 -0.3 -0.5 -0.4
 -0.2 -0.5 -0.4
 -0.1 -0.5 -0.4
 0 -0.5 -0.4
 0.1 -0.5 -0.4
 0.2 -0.5 -0.4
 0.3 -0.5 -0.4
 0.4 -0.5 -0.4
 0.5 -0.5 -0.4
 -0.5 -0.4 -0.4
 -0.4 -0.4 -0.4
 -0.3 -0.4 -0.4
 -0.2 -0.4 -0.4
 -0.1 -0.4 -0.4
 0 -0.4 -0.4
 0.1 -0.4 -0.4
 0.2 -0.4 -0.4
 0.3 -0.4 -0.4
 0.4 -0.4 -0.4
 0.5 -0.4 -0.4
 -0.5 -0.3 -0.4
 -0.4 -0.3 -0.4
 -0.3 -0.3 -0.4
 -0.2 -0.3 -0.4
 -0.1 -0.3 -0.4
 0 -0.3 -0.4
 0.1 -0.3 -0.4
 0.2 -0.3 -0.4
 0.3 -0.3 -0.4
 0.4 -0.3 -0.4
 0.5 -0.3 -0.4
 -0.5 -0.2 -0.4
 -0.4 -0.2 -0.4
 -0.3 -0.2 -0.4
 -0.2 -0.2 -0.4
 -0.1 -0.2 -0.4
 0 -0.2 -0.4
 0.1 -0.2 -0.4
 0.2 -0.2 -0.4
 0.3 -0.2 -0.4
 0.4 -0.2 -0.4
 0.5 -0.2 -0.4
 -0.5 -0.1 -0.4
 -0.4 -0.1 -0.4
 -0.3 -0.1 -0.4
 -0.2 -0.1 -0.4
 -0.1 -0.1 -0.4
 0 -0.1 -0.4
 0.1 -0.1 -0.4
 0.2 -0.1 -0.4
 0.3 -0.1 -0.4
 0.4 -0.1 -0.4
 0.5 -0.1 -0.4
 -0.5 0 -0.4
 -0.4 0 -0.4
 -0.3 0 -0.4
 -0.2 0 -0.4
 -0.1 0 -0.4
 0 0 -0.4
 0.1 0 -0.4
 0.2 0 -0.4
 0.3 0 -0.4
 0.4 0 -0.4
 0.5 0 -0.4
 -0.5 0.1 -0.4
 -0.4 0.1 -0.4
 -0.3 0.1 -0.4
 -0.2 0.1 -0.4
 -0.1 0.1 -0.4
 0 0.1 -0.4
 0.1 0.1 -0.4
 0.2 0.1 -0.4
 0.3 0.1 -0.4
 0.4 0.1 -0.4
 0.5 0.1 -0.4
 -0.5 0.2 -0.4
 -0.4 0.2 -0.4
 -0.3 0.2 -0.4
 -0.2 0.2 -0.4
 -0.1 0.2 -0.4
 0 0.2 -0.4
 0.1 0.2 -0.4
 0.2 0.2 -0.4
 0.3 0.2 -0.4
 0.4 0.2 -0.4
 0.5 0.2 -0.4
 -0.5 0.3 -0.4
 -0.4 0.3 -0.4
 -0.3 0.3 -0.4
 -0.2 0.3 -0.4
 -0.1 0.3 -0.4
 0 0.3 -0.4
 0.1 0.3 -0.4
 0.2 0.3 -0.4
 0.3 0.3 -0.4
 0.4 0.3 -0.4
 0.5 0.3 -0.4
 -0.5 0.4 -0.4
 -0.4 0.4 -0.4
 -0.3 0.4 -0.4
 -0.2 0.4 -0.4
 -0.1 0.4 -0.4
 0 0.4 -0.4
 0.1 0.4 -0.4
 0.2 0.4 -0.4
 0.3 0.4 -0.4
 0.4 0.4 -0.4
 0.5 0.4 -0.4
 -0.5 0.5 -0.4
 -0.4 0.5 -0.4
 -0.3 0.5 -0.4
 -0.2 0.5 -0.4
 -0.1 0.5 -0.4
 0 0.5 -0.4
 0.1 0.5 -0.4
 0.2 0.5 -0.4
 0.3 0.5 -0.4
 0.4 0.5 -0.4
 0.5 0.5 -0.4
 -0.5 -0.5 -0.3
 -0.4 -0.5 -0.3
 -0.3 -0.5 -0.3
 -0.2 -0.5 -0.3
 -0.1 -0.5 -0.3
 0 -0.5 -0.3
 0.1 -0.5 -0.3
 0.2 -0.5 -0.3
 0.3 -0.5 -0.3
 0.4 -0.5 -0.3
 0.5 -0.5 -0.3
 -0.5 -0.4 -0.3
 -0.4 -0.4 -0.3
 -0.3 -0.4 -0.3
 -0.2 -0.4 -0.3
 -0.1 -0.4 -0.3
 0 -0.4 -0.3
 0.1 -0.4 -0.3
 0.2 -0.4 -0.3
 0.3 -0.4 -0.3
 0.4 -0.4 -0.3
 0.5 -0.4 -0.3
 -0.5 -0.3 -0.3
 -0.4 -0.3 -0.3
 -0.3 -0.3 -0.3
 -0.2 -0.3 -0.3
 -0.1 -0.3 -0.3
 0 -0.3 -0.3
 0.1 -0.3 -0.3
 0.2 -0.3 -0.3
 0.3 -0.3 -0.3
 0.4 -0.3 -0.3
 0.5 -0.3 -0.3
 -0.5 -0.2 -0.3
 -0.4 -0.2 -0.3
 -0.3 -0.2 -0.3
 -0.2 -0.2 -0.3
 -0.1 -0.2 -0.3
 0 -0.2 -0.3
 0.1 -0.2 -0.3
 0.2 -0.2 -0.3
 0.3 -0.2 -0.3
 0.4 -0.2 -0.3
 0.5 -0.2 -0.3
 -0.5 -0.1 -0.3
 -0.4 -0.1 -0.3
 -0.3 -0.1 -0.3
 -0.2 -0.1 -0.3
 -0.1 -0.1 -0.3
 0 -0.1 -0.3
 0.1 -0.1 -0.3
 0.2 -0.1 -0.3
 0.3 -0.1 -0.3
 0.4 -0.1 -0.3
 0.5 -0.1 -0.3
 -0.5 0 -0.3
 -0.4 0 -0.3
 -0.3 0 -0.3
 -0.2 0 -0.3
 -0.1 0 -0.3
 0 0 -0.3
 0.1 0 -0.3
 0.2 0 -0.3
 0.3 0 -0.3
 0.4 0 -0.3
 0.5 0 -0.3
 -0.5 0.1 -0.3
 -0.4 0.1 -0.3
 -0.3 0.1 -0.3
 -0.2 0.1 -0.3
 -0.1 0.1 -0.3
 0 0.1 -0.3
 0.1 0.1 -0.3
 0.2 0.1 -0.3
 0.3 0.1 -0.3
 0.4 0.1 -0.3
 0.5 0.1 -0.3
 -0.5 0.2 -0.3
 -0.4 0.2 -0.3
 -0.3 0.2 -0.3
 -0.2 0.2 -0.3
 -0.1 0.2 -0.3
 0 0.2 -0.3
 0.1 0.2 -0.3
 0.2 0.2 -0.3
 0.3 0.2 -0.3
 0.4 0.2 -0.3
 0.5 0.2 -0.3
 -0.5 0.3 -0.3
 -0.4 0.3 -0.3
 -0.3 0.3 -0.3
 -0.2 0.3 -0.3
 -0.1 0.3 -0.3
 0 0.3 -0.3
 0.1 0.3 -0.3
 0.2 0.3 -0.3
 0.3 0.3 -0.3
 0.4 0.3 -0.3
 0.5 0.3 -0.3
 -0.5 0.4 -0.3
 -0.4 0.4 -0.3
 -0.3 0.4 -0.3
 -0.2 0.4 -0.3
 -0.1 0.4 -0.3
 0 0.4 -0.3
 0.1 0.4 -0.3
 0.2 0.4 -0.3
 0.3 0.4 -0.3
 0.4 0.4 -0.3
 0.5 0.4 -0.3
 -0.5 0.5 -0.3
 -0.4 0.5 -0.3
 -0.3 0.5 -0.3
 -0.2 0.5 -0.3
 -0.1 0.5 -0.3
 0 0.5 -0.3
 0.1 0.5 -0.3
 0.2 0.5 -0.3
 0.3 0.5 -0.3
 0.4 0.5 -0.3
 0.5 0.5 -0.3
 -0.5 -0.5 -0.2
 -0.4 -0.5 -0.2
 -0.3 -0.5 -0.2
 -0.2 -0.5 -0.2
 -0.1 -0.5 -0.2
 0 -0.5 -0.2
 0.1 -0.5 -0.2
 0.2 -0.5 -0.2
 0.3 -0.5 -0.2
 0.4 -0.5 -0.2
 0.5 -0.5 -0.2
 -0.5 -0.4 -0.2
 -0.4 -0.4 -0.2
 -0.3 -0.4 -0.2
 -0.2 -0.4 -0.2
 -0.1 -0.4 -0.2
 0 -0.4 -0.2
 0.1 -0.4 -0.2
 0.2 -0.4 -0.2
 0.3 -0.4 -0.2
 0.4 -0.4 -0.2
 0.5 -0.4 -0.2
 -0.5 -0.3 -0.2
 -0.4 -0.3 -0.2
 -0.3 -0.3 -0.2
 -0.2 -0.3 -0.2
 -0.1 -0.3 -0.2
 0 -0.3 -0.2
 0.1 -0.3 -0.2
 0.2 -0.3 -0.2
 0.3 -0.3 -0.2
 0.4 -0.3 -0.2
 0.5 -0.3 -0.2
 -0.5 -0.2 -0.2
 -0.4 -0.2 -0.2
 -0.3 -0.2 -0.2
 -0.2 -0.2 -0.2
 -0.1 -0.2 -0.2
 0 -0.2 -0.2
 0.1 -0.2 -0.2
 0.2 -0.2 -0.2
 0.3 -0.2 -0.2
 0.4 -0.2 -0.2
 0.5 -0.2 -0.2
 -0.5 -0.1 -0.2
 -0.4 -0.1 -0.2
 -0.3 -0.1 -0.2
 -0.2 -0.1 -0.2
 -0.1 -0.1 -0.2
 0 -0.1 -0.2
 0.1 -0.1 -0.2
 0.2 -0.1 -0.2
 0.3 -0.1 -0.2
 0.4 -0.1 -0.2
 0.5 -0.1 -0.2
 -0.5 0 -0.2
 -0.4 0 -0.2
 -0.3 0 -0.2
 -0.2 0 -0.2
 -0.1 0 -0.2
 0 0 -0.2
 0.1 0 -0.2
 0.2 0 -0.2
 0.3 0 -0.2
 0.4 0 -0.2
 0.5 0 -0.2
 -0.5 0.1 -0.2
 -0.4 0.1 -0.2
 -0.3 0.1 -0.2
 -0.2 0.1 -0.2
 -0.1 0.1 -0.2
 0 0.1 -0.2
 0.1 0.1 -0.2
 0.2 0.1 -0.2
 0.3 0.1 -0.2
 0.4 0.1 -0.2
 0.5 0.1 -0.2
 -0.5 0.2 -0.2
 -0.4 0.2 -0.2
 -0.3 0.2 -0.2
 -0.2 0.2 -0.2
 -0.1 0.2 -0.2
 0 0.2 -0.2
 0.1 0.2 -0.2
 0.2 0.2 -0.2
 0.3 0.2 -0.2
 0.4 0.2 -0.2
 0.5 0.2 -0.2
 -0.5 0.3 -0.2
 -0.4 0.3 -0.2
 -0.3 0.3 -0.2
 -0.2 0.3 -0.2
 -0.1 0.3 -0.2
 0 0.3 -0.2
 0.1 0.3 -0.2
 0.2 0.3 -0.2
 0.3 0.3 -0.2
 0.4 0.3 -0.2
 0.5 0.3 -0.2
 -0.5 0.4 -0.2
 -0.4 0.4 -0.2
 -0.3 0.4 -0.2
 -0.2 0.4 -0.2
 -0.1 0.4 -0.2
 0 0.4 -0.2
 0.1 0.4 -0.2
 0.2 0.4 -0.2
 0.3 0.4 -0.2
 0.4 0.4 -0.2
 0.5 0.4 -0.2
 -0.5 0.5 -0.2
 -0.4 0.5 -0.2
 -0.3 0.5 -0.2
 -0.2 0.5 -0.2
 -0.1 0.5 -0.2
 0 0.5 -0.2
 0.1 0.5 -0.2
 0.2 0.5 -0.2
 0.3 0.5 -0.2
 0.4 0.5 -0.2
 0.5 0.5 -0.2
 -0.5 -0.5 -0.1
 -0.4 -0.5 -0.1
 -0.3 -0.5 -0.1
 -0.2 -0.5 -0.1
 -0.1 -0.5 -0.1
 0 -0.5 -0.1
 0.1 -0.5 -0.1
 0.2 -0.5 -0.1
 0.3 -0.5 -0.1
 0.4 -0.5 -0.1
 0.5 -0.5 -0.1
 -0.5 -0.4 -0.1
 -0.4 -0.4 -0.1
 -0.3 -0.4 -0.1
 -0.2 -0.4 -0.1
 -0.1 -0.4 -0.1
 0 -0.4 -0.1
 0.1 -0.4 -0.1
 0.2 -0.4 -0.1
 0.3 -0.4 -0.1
 0.4 -0.4 -0.1
 0.5 -0.4 -0.1
 -0.5 -0.3 -0.1
 -0.4 -0.3 -0.1
 -0.3 -0.3 -0.1
 -0.2 -0.3 -0.1
 -0.1 -0.3 -0.1
 0 -0.3 -0.1
 0.1 -0.3 -0.1
 0.2 -0.3 -0.1
 0.3 -0.3 -0.1
 0.4 -0.3 -0.1
 0.5 -0.3 -0.1
 -0.5 -0.2 -0.1
 -0.4 -0.2 -0.1
 -0.3 -0.2 -0.1
 -0.2 -0.2 -0.1
 -0.1 -0.2 -0.1
 0 -0.2 -0.1
 0.1 -0.2 -0.1
 0.2 -0.2 -0.1
 0.3 -0.2 -0.1
 0.4 -0.2 -0.1
 0.5 -0.2 -0.1
 -0.5 -0.1 -0.1
 -0.4 -0.1 -0.1
 -0.3 -0.1 -0.1
 -0.2 -0.1 -0.1
 -0.1 -0.1 -0.1
 0 -0.1 -0.1
 0.1 -0.1 -0.1
 0.2 -0.1 -0.1
 0.3 -0.1 -0.1
 0.4 -0.1 -0.1
 0.5 -0.1 -0.1
 -0.5 0 -0.1
 -0.4 0 -0.1
 -0.3 0 -0.1
 -0.2 0 -0.1
 -0.1 0 -0.1
 0 0 -0.1
 0.1 0 -0.1
 0.2 0 -0.1
 0.3 0 -0.1
 0.4 0 -0.1
 0.5 0 -0.1
 -0.5 0.1 -0.1
 -0.4 0.1 -0.1
 -0.3 0.1 -0.1
 -0.2 0.1 -0.1
 -0.1 0.1 -0.1
 0 0.1 -0.1
 0.1 0.1 -0.1
 0.2 0.1 -0.1
 0.3 0.1 -0.1
 0.4 0.1 -0.1
 0.5 0.1 -0.1
 -0.5 0.2 -0.1
 -0.4 0.2 -0.1
 -0.3 0.2 -0.1
 -0.2 0.2 -0.1
 -0.1 0.2 -0.1
 0 0.2 -0.1
 0.1 0.2 -0.1
 0.2 0.2 -0.1
 0.3 0.2 -0.1
 0.4 0.2 -0.1
 0.5 0.2 -0.1
 -0.5 0.3 -0.1
 -0.4 0.3 -0.1
 -0.3 0.3 -0.1
 -0.2 0.3 -0.1
 -0.1 0.3 -0.1
 0 0.3 -0.1
 0.1 0.3 -0.1
 0.2 0.3 -0.1
 0.3 0.3 -0.1
 0.4 0.3 -0.1
 0.5 0.3 -0.1
 -0.5 0.4 -0.1
 -0.4 0.4 -0.1
 -0.3 0.4 -0.1
 -0.2 0.4 -0.1
 -0.1 0.4 -0.1
 0 0.4 -0.1
 0.1 0.4 -0.1
 0.2 0.4 -0.1
 0.3 0.4 -0.1
 0.4 0.4 -0.1
 0.5 0.4 -0.1
 -0.5 0.5 -0.1
 -0.4 0.5 -0.1
 -0.3 0.5 -0.1
 -0.2 0.5 -0.1
 -0.1 0.5 -0.1
 0 0.5 -0.1
 0.1 0.5 -0.1
 0.2 0.5 -0.1
 0.3 0.5 -0.1
 0.4 0.5 -0.1
 0.5 0.5 -0.1
 -0.5 -0.5 0
 -0.4 -0.5 0
 -0.3 -0.5 0
 -0.2 -0.5 0
 -0.1 -0.5 0
 0 -0.5 0
 0.1 -0.5 0
 0.2 -0.5 0
 0.3 -0.5 0
 0.4 -0.5 0
 0.5 -0.5 0
 -0.5 -0.4 0
 -0.4 -0.4 0
 -0.3 -0.4 0
 -0.2 -0.4 0
 -0.1 -0.4 0
 0 -0.4 0
 0.1 -0.4 0
 0.2 -0.4 0
 0.3 -0.4 0
 0.4 -0.4 0
 0.5 -0.4 0
 -0.5 -0.3 0
 -0.4 -0.3 0
 -0.3 -0.3 0
 -0.2 -0.3 0
 -0.1 -0.3 0
 0 -0.3 0
 0.1 -0.3 0
 0.2 -0.3 0
 0.3 -0.3 0
 0.4 -0.3 0
 0.5 -0.3 0
 -0.5 -0.2 0
 -0.4 -0.2 0
 -0.3 -0.2 0
 -0.2 -0.2 0
 -0.1 -0.2 0
 0 -0.2 0
 0.1 -0.2 0
 0.2 -0.2 0
 0.3 -0.2 0
 0.4 -0.2 0
 0.5 -0.2 0
 -0.5 -0.1 0
 -0.4 -0.1 0
 -0.3 -0.1 0
 -0.2 -0.1 0
 -0.1 -0.1 0
 0 -0.1 0
 0.1 -0.1 0
 0.2 -0.1 0
 0.3 -0.1 0
 0.4 -0.1 0
 0.5 -0.1 0
 -0.5 0 0
 -0.4 0 0
 -0.3 0 0
 -0.2 0 0
 -0.1 0 0
 0 0 0
 0.1 0 0
 0.2 0 0
 0.3 0 0
 0.4 0 0
 0.5 0 0
 -0.5 0.1 0
 -0.4 0.1 0
 -0.3 0.1 0
 -0.2 0.1 0
 -0.1 0.1 0
 0 0.1 0
 0.1 0.1 0
 0.2 0.1 0
 0.3 0.1 0
 0.4 0.1 0
 0.5 0.1 0
 -0.5 0.2 0
 -0.4 0.2 0
 -0.3 0.2 0
 -0.2 0.2 0
 -0.1 0.2 0
 0 0.2 0
 0.1 0.2 0
 0.2 0.2 0
 0.3 0.2 0
 0.4 0.2 0
 0.5 0.2 0
 -0.5 0.3 0
 -0.4 0.3 0
[...]
CELL_DATA 1000
FIELD DOMAIN 2
VOL_DIV_q 1 1000 FLOAT 
 -22674.4
 -23972.9
 -23950.1
 -24669.8
 -25282.8
 -24893.5
 -24582.7
 -24124.6
 -23635.1
 -22820.7
 -22234.8
 -24418
 -24769
 -26865.2
 -27855.6
 -27630
 -27273.1
 -25429.5
 -24460.3
 -22500.1
 -23658.3
 -25366.1
 -26809.2
 -28987.8
 -30664
 -31145.3
 -28698.4
 -27293.2
 -25296
 -23055.3
 -23253.8
 -26108.9
 -29130.2
 -31530.5
 -34605.2
 -35297.6
 -31646.9
 -29815.1
 -26748.3
 -23605.4
 -23690.8
 -27815.8
 -31861.3
 -34391.4
 -38398.9
 -37776.2
 -34991.2
 -31625.1
 -27689.3
 -23275.2
 -24068.3
 -28113.4
 -31835.6
 -34962.7
 -38766.4
 -38866.3
 -34942
 -31858
 -27559.4
 -24266.5
 -24075.1
 -27052.9
 -30038.9
 -32380.7
 -35765.2
 -35272
 -32346.8
 -29788.4
 -27442.8
 -24197.2
 -24209.1
 -26345.5
 -28982.6
 -30696.1
 -33212.4
 -33481.1
 -30592.3
 -29261.8
 -26059.1
 -23559.5
 -24547.1
 -26048.3
 -27912.8
 -29267.8
 -30924.8
 -30283.5
 -29351.6
 -27432.6
 -26650
 -24376.5
 -25937.8
 -27140
 -27893.6
 -28414.8
 -28721.2
 -28002.8
 -28428.7
 -28111.2
 -27477.8
 -26440.9
 -23771.4
 -25041.8
 -26923.5
 -27938.1
 -29337.9
 -28904.6
 -28437.2
 -26613.6
 -25571
 -23224.5
 -24690.2
 -28683.6
 -31938.4
 -35620.3
 -39071.9
 -39059.2
 -35634.1
 -31750.6
 -27928.1
 -24029.6
 -25419.8
 -31883.7
 -37719
 -43605.3
 -49995.8
 -49175.1
 -43149.5
 -37066.2
 -31496.7
 -25999.2
 -27238.5
 -35336.9
 -43618.6
 -51151.8
 -58586.6
 -60709.4
 -51023.1
 -43446
 -35036
 -26029.9
 -27665.5
 -38030.3
 -49677.2
 -60254.3
 -71473.6
 -69266.9
 -60071.9
 -49713.1
 -39275.7
 -28199.5
 -27849.5
 -39662.5
 -50582.8
 -61417.7
 -69642.6
 -69036.1
 -60934.2
 -50963.2
 -38867.2
 -28509.4
 -27248
 -36122.4
 -45343.2
 -53520.4
 -61289.3
 -62583.9
 -53358.7
 -45350.7
 -37364
 -28059.9
 -27373.3
 -34014.6
 -39406.1
 -46230.6
 -52401.7
 -53413.4
 -47458.8
 -40219.9
 -34539.1
 -27514.5
 -28032.1
 -31677.2
 -36406
 -40529.2
 -43948.9
 -45519
 -41221.3
 -35743.2
 -31942.8
 -27201.1
 -28080
 -30574.5
 -31343.3
 -33046.9
 -33712.2
 -34699.1
 -33301.5
 -31952.3
 -29653.7
 -27704.6
 -24677.5
 -27184.3
 -29283.1
 -31245.3
 -32926.1
 -33441.5
 -31995.1
 -29055.2
 -27051.8
 -24508.9
 -26350.7
 -32629.3
 -39347.6
 -45948.6
 -51671.4
 -50568.6
 -44792.2
 -39862
 -32910.7
 -26214.4
 -28935.9
 -38228.2
 -48606.9
 -58305.9
 -67304.1
 -68802.9
 -57790.2
 -48375
 -38465.4
 -27826.2
 -29654.3
 -44496.9
 -58386.9
 -72619.5
 -86744.5
 -84779.7
 -71790.3
 -58231.2
 -43819.4
 -30068.6
 -32677.4
 -50971.8
 -67977.2
 -87105.1
 -99296.7
 -102217
 -86394.5
 -68762.5
 -50122.2
 -31753.2
 -32794.2
 -51540.8
 -69887.4
 -87862.5
 -103560
 -104185
 -87046
 -69164.4
 -52016.2
 -32563.6
 -31411.5
 -46322
 -62767.2
 -75893.6
 -87588
 -88269.3
 -75445.1
 -61714.4
 -46702.7
 -31983
 -30439.7
 -41728.1
 -52322.8
 -62540
 -73802.5
 -74447
 -63742.5
 -53667.3
 -41054.9
 -30624.6
 -29905.3
 -36162.3
 -44578.6
 -51402.8
 -57027
 -58502.6
 -51726.6
 -44198.6
 -36438.2
 -29106.9
 -28920.8
 -32885
 -34801.7
 -37493
 -40420.1
 -39406
 -36763.6
 -34928.5
 -32464.9
 -28534.9
 -25669.9
 -29228.9
 -32479.6
 -35621.6
 -38010.5
 -38133.2
 -35794.3
 -32871.4
 -28989.1
 -25967.9
 -27715.3
 -37221.9
 -46696.2
 -55377.4
 -63780.8
 -63480.9
 -54639.6
 -46494.4
 -37687.5
 -28465.5
 -31194
 -45600.8
 -60421.3
 -73721.4
 -86412.5
 -86271.7
 -74059.8
 -60367.7
 -46772.8
 -30906.9
 -34127.1
 -53894.1
 -71912.5
 -90585.2
 -111334
 -112761
 -92416.3
 -74175.3
 -55731.5
 -33555.8
 -37069.7
 -64801.7
 -90766.7
 -109634
 -134470
 -138324
 -111908
 -89692.1
 -62931.5
 -36268.7
 -37711.8
 -62557.5
 -89813.1
 -111390
 -135053
 -140981
 -113424
 -90359.8
 -62214.8
 -37341.4
 -35889.2
 -57514.3
 -77391.4
 -95356.3
 -115309
 -117974
 -100962
 -78283.4
 -57963.5
 -35267.9
 -33436.9
 -50232.6
 -65747.2
 -80361.3
 -96276.6
 -96559.2
 -81888.3
 -66045.3
 -49883.9
 -33588.4
 -31553.9
 -42608.1
 -51160.8
 -61251.7
 -73545.4
 -72568.9
 -62670
 -53522
 -42006.1
 -32378.2
 -30001.9
 -35086
 -37773.1
 -40642.1
 -45039.2
 -45830.1
 -41840.2
 -37694.5
 -34619.5
 -30227.9
 -27234
 -31468.4
 -35750.2
 -39220.8
 -43907.8
 -44569.3
 -38743.4
 -34801.7
 -32237.5
 -27068.3
 -30524.2
 -42475.8
 -55302.3
 -63818.7
 -76552.2
 -79238.3
 -65185.9
 -54540.7
 -42064.9
 -30836.5
 -34128.3
 -54229.5
 -73320.8
 -90841.5
 -109117
 -109647
 -92404.1
 -72092.6
 -54155.2
 -34136.1
 -38046.3
 -63360
 -90710.7
 -118251
 -139096
 -143158
 -117133
 -92870.8
 -65833
 -37414.8
 -41880.5
 -77821
 -108300
 -141328
 -170307
 -171407
 -141349
 -109982
 -75365.6
 -41762.6
 -42302
 -77303.7
 -111734
 -139140
 -171701
 -176482
 -142780
 -110905
 -77248.2
 -42683.3
 -40352.7
 -67036.8
 -94350.1
 -122309
 -143628
 -146510
 -120735
 -94303.5
 -68674.4
 -40102.6
 -36688.5
 -58747.9
 -77214.1
 -101196
 -117546
 -120247
 -100021
 -77228.5
 -58552.2
 -37267.7
 -33998.1
 -47297
 -61209.3
 -73815.1
 -85392.4
 -88221.3
 -74232.2
 -61506.1
 -47090.1
 -34125.3
 -32142.2
 -37009.9
 -40482.7
 -46850
 -50075.2
 -52675
 -44791.8
 -41170.1
 -36983.5
 -31533.3
 -27710.8
 -32197.2
 -36148
 -40920.8
 -44410.1
 -45290.1
 -40347.5
 -35673.1
 -32202.5
 -28015.2
 -31468.1
 -44475.9
 -58289.8
 -68718.7
 -81666.8
 -79766.2
 -67875.9
 -56353
 -45431.4
 -31554.1
 -36163.8
 -56011.3
 -75567
 -95085.7
 -115266
 -112607
 -92138.6
 -74357.2
 -55748.4
 -35481.7
 -38913.5
 -69323.9
 -94075.2
 -118494
 -140625
 -151323
 -122157
 -94570.9
 -67786.7
 -39420.6
 -44533.9
 -81344
 -114541
 -147866
 -179158
 -180418
 -145692
 -112018
 -79621.2
 -44076.9
 -44211.9
 -81736.5
 -117862
 -149420
 -181816
 -181043
 -151242
 -115422
 -79533.6
 -44954.1
 -41795.1
 -70743.7
 -100944
 -125585
 -154016
 -153980
 -125631
 -102558
 -69887.5
 -40418.2
 -38213.6
 -60063.8
 -82342.4
 -103160
 -122093
 -123712
 -104560
 -80138.8
 -61315.1
 -39365.9
 -34759.1
 -48393.6
 -63403.2
 -76546.9
 -89153.8
 -90883.5
 -76299.2
 -65965
 -49146.2
 -35656.1
 -31918.8
 -37320.6
 -43862.8
 -47425.4
 -51245.1
 -52638
 -48080.7
 -41535.7
 -36858.7
 -32542.5
 -28415.8
 -33121.9
 -35663.8
 -39073.4
 -42082.9
 -42247.3
 -39266.9
 -36630.3
 -32016.8
 -28742.1
 -31956.5
 -42059.6
 -53562
 -62413.7
 -71912.6
 -72506
 -63366.1
 -51357.7
 -42396.4
 -31624.3
 -34173.5
 -51531.1
 -67452.8
 -87285.5
 -98322.1
 -100812
 -85233.2
 -68455.9
 -51826.6
 -34817.4
 -38566.6
 -60646.4
 -83336.7
 -104408
 -126602
 -128738
 -105590
 -84096.9
 -60479.9
 -37673.3
 -40913.4
 -70744.8
 -101719
 -129346
 -156468
 -157861
 -128128
 -97268.8
 -71567.2
 -42522
 -41283.3
 -72674.4
 -97870.2
 -131422
 -155329
 -157894
 -126973
 -98524.2
 -72453.7
 -42817.4
 -39623
 -64688.3
 -88394
 -110560
 -135409
 -135783
 -110039
 -88407.8
 -64869.2
 -39746.1
 -37279.2
 -56736.5
 -73772.9
 -92143
 -110341
 -109943
 -90266.9
 -74380
 -55508.9
 -37326
 -34938.4
 -47321.6
 -58880.5
 -67556.9
 -80047.5
 -81722.2
 -67888.4
 -58563.7
 -46333.1
 -35130.6
 -33556.2
 -37163.9
 -42023.2
 -45021.2
 -48717.2
 -49769.6
 -45032.8
 -41557.5
 -37958.2
 -33386.4
 -29426.8
 -32400.4
 -34792.1
 -37621.9
 -39663.2
 -40001.7
 -38525.3
 -35374
 -32347
 -28835.9
 -30768.9
 -39610.4
 -47490.6
 -56828.3
 -62538.7
 -60538.1
 -55783.1
 -46761.5
 -38437.8
 -30613.9
 -33817.8
 -46417.2
 -60610.2
 -71554.4
 -82838.1
 -84254.4
 -73411.8
 -58188.6
 -46636.3
 -33959.8
 -35704.4
 -53941.6
 -71112.7
 -87632.5
 -104663
 -108164
 -88793.7
 -70210.8
 -54838.4
 -35568.6
 -39435.6
 -61864.5
 -83010
 -105585
 -127847
 -124721
 -105920
 -84310.4
 -60690.4
 -39195.5
 -39413.4
 -62323.5
 -86511
 -107380
 -130575
 -131096
 -109433
 -84728.6
 -62957.5
 -39453
 -38488.9
 -57749
 -75276.9
 -95853
 -108782
 -108007
 -94157.2
 -74726.5
 -55907.6
 -38117.3
 -36153.4
 -51083.4
 -63567.2
 -76983.9
 -89959.6
 -92042.8
 -76653.5
 -63937.5
 -49328.4
 -36443.1
 -34860.1
 -42713.7
 -53742.7
 -61959.4
 -68877
 -70428.7
 -60662.6
 -52994.4
 -43772.3
 -34310
 -33111.6
 -38741.7
 -40475.5
 -43094.9
 -47293.7
 -46476.6
 -43172.8
 -40987.6
 -37407.1
 -33398.8
 -31218.7
 -32899.1
 -34867.4
 -36070.4
 -37825
 -37624.7
 -36249.1
 -34682.9
 -32719.1
 -29777.6
 -31584
 -36248.8
 -42423.4
 -46819.6
 -51236.5
 -52694.4
 -47150.3
 -41520.2
 -37450.3
 -31557.3
 -32827.3
 -41698.9
 -49841.3
 -58404.7
 -65946.5
 -66284.9
 -58191.1
 -50224
 -41308.2
 -33063.4
 -34172.2
 -45974.9
 -57739.4
 -68240.3
 -80882.8
 -79269.8
 -69442.4
 -57894.3
 -47412.8
 -34826
 -36574.8
 -51387.9
 -66670.2
 -79553.7
 -94899.4
 -95490.3
 -78184.5
 -65411.7
 -50336.5
 -35869.7
 -36443.5
 -51332.7
 -67589.1
 -81911.6
 -94354.1
 -93554.7
 -79905.3
 -65597
 -52623.5
 -36514.3
 -36188.6
 -49026.1
 -59830.1
 -70922
 -83321.3
 -82826.1
 -70365.5
 -59482.5
 -48167.3
 -35104.1
 -35202.2
 -43558.7
 -52947.9
 -61234.5
 -70299.8
 -70350
 -61383.2
 -53329.8
 -42994.1
 -34593.2
 -34210.2
 -41150.2
 -46406.6
 -51312.9
 -57151.2
 -57841.7
 -50786.6
 -45964.9
 -40245.3
 -34487.9
 -34520.5
 -37186.7
 -39166.3
 -40182.4
 -43830.2
 -43995
 -40211.2
 -39435.6
 -36946.2
 -33714.8
 -31495.1
 -33135.1
 -33413.7
 -33810.6
 -35275.3
 -34389.4
 -34659
 -33792.8
 -33079.8
 -31979.4
 -31972.2
 -34314.3
 -35963.7
 -37761.2
 -40279.3
 -40126.4
 -38530
 -35643.4
 -34134.4
 -31805.9
 -32555.6
 -35709.7
 -38709.6
 -41242.7
 -43851.9
 -45366.4
 -42678.9
 -38709.7
 -35629.5
 -32654
 -33032.4
 -37254.4
 -42396.6
 -45176.9
 -50579.5
 -48827.5
 -45957.7
 -41916.2
 -38001.6
 -33565.9
 -33750.9
 -40470.1
 -44137.7
 -50013.2
 -57042.9
 -54924.1
 -50108.7
 -44177.2
 -40242.9
 -33386.3
 -34239.4
 -40350.5
 -44857.7
 -51000.8
 -56221.8
 -55480.8
 -51047.5
 -45284.2
 -39755.2
 -33601.5
 -33856.4
 -38599.4
 -42962.5
 -47254.4
 -52416.8
 -51087.2
 -47668
 -42906.8
 -38953
 -33236.8
 -34135.5
 -37262.4
 -40329.9
 -43675.9
 -47170.8
 -46355.8
 -43257.8
 -41227.6
 -38173.7
 -33647.3
 -34240.2
 -37538.3
 -39103.4
 -41898.2
 -43457.5
 -42216.5
 -40965
 -39241.3
 -35928.5
 -33858
 -35174.7
 -35044.3
 -36806.9
 -39043.1
 -40172.1
 -39141.6
 -38696.8
 -37800.3
 -36679
 -33917

Vol_HEAT_Q 1 1000 FLOAT 
 -22.6744
 -23.9729
 -23.9501
 -24.6698
 -25.2828
 -24.8935
 -24.5827
 -24.1246
 -23.6351
 -22.8207
 -22.2348
 -24.418
 -24.769
 -26.8652
 -27.8556
 -27.63
 -27.2731
 -25.4295
 -24.4603
 -22.5001
 -23.6583
 -25.3661
 -26.8092
 -28.9878
 -30.664
 -31.1453
 -28.6984
 -27.2932
 -25.296
 -23.0553
 -23.2538
 -26.1089
 -29.1302
 -31.5305
 -34.6052
 -35.2976
 -31.6469
 -29.8151
 -26.7483
 -23.6054
 -23.6908
 -27.8158
 -31.8613
 -34.3914
 -38.3989
 -37.7762
 -34.9912
 -31.6251
 -27.6893
 -23.2752
 -24.0683
 -28.1134
 -31.8356
 -34.9627
 -38.7664
 -38.8663
 -34.942
 -31.858
 -27.5594
 -24.2665
 -24.0751
 -27.0529
 -30.0389
 -32.3807
 -35.7652
 -35.272
 -32.3468
 -29.7884
 -27.4428
 -24.1972
 -24.2091
 -26.3455
 -28.9826
 -30.6961
 -33.2124
 -33.4811
 -30.5923
 -29.2618
 -26.0591
 -23.5595
 -24.5471
 -26.0483
 -27.9128
 -29.2678
 -30.9248
 -30.2835
 -29.3516
 -27.4326
 -26.65
 -24.3765
 -25.9378
 -27.14
 -27.8936
 -28.4148
 -28.7212
 -28.0028
 -28.4287
 -28.1112
 -27.4778
 -26.4409
 -23.7714
 -25.0418
 -26.9235
 -27.9381
 -29.3379
 -28.9046
 -28.4372
 -26.6136
 -25.571
 -23.2245
 -24.6902
 -28.6836
 -31.9384
 -35.6203
 -39.0719
 -39.0592
 -35.6341
 -31.7506
 -27.9281
 -24.0296
 -25.4198
 -31.8837
 -37.719
 -43.6053
 -49.9958
 -49.1751
 -43.1495
 -37.0662
 -31.4967
 -25.9992
 -27.2385
 -35.3369
 -43.6186
 -51.1518
 -58.5866
 -60.7094
 -51.0231
 -43.446
 -35.036
 -26.0299
 -27.6655
 -38.0303
 -49.6772
 -60.2543
 -71.4736
 -69.2669
 -60.0719
 -49.7131
 -39.2757
 -28.1995
 -27.8495
 -39.6625
 -50.5828
 -61.4177
 -69.6426
 -69.0361
 -60.9342
 -50.9632
 -38.8672
 -28.5094
 -27.248
 -36.1224
 -45.3432
 -53.5204
 -61.2893
 -62.5839
 -53.3587
 -45.3507
 -37.364
 -28.0599
 -27.3733
 -34.0146
 -39.4061
 -46.2306
 -52.4017
 -53.4134
 -47.4588
 -40.2199
 -34.5391
 -27.5145
 -28.0321
 -31.6772
 -36.406
 -40.5292
 -43.9489
 -45.519
 -41.2213
 -35.7432
 -31.9428
 -27.2011
 -28.08
 -30.5745
 -31.3433
 -33.0469
 -33.7122
 -34.6991
 -33.3015
 -31.9523
 -29.6537
 -27.7046
 -24.6775
 -27.1843
 -29.2831
 -31.2453
 -32.9261
 -33.4415
 -31.9951
 -29.0552
 -27.0518
 -24.5089
 -26.3507
 -32.6293
 -39.3476
 -45.9486
 -51.6714
 -50.5686
 -44.7922
 -39.862
 -32.9107
 -26.2144
 -28.9359
 -38.2282
 -48.6069
 -58.3059
 -67.3041
 -68.8029
 -57.7902
 -48.375
 -38.4654
 -27.8262
 -29.6543
 -44.4969
 -58.3869
 -72.6195
 -86.7445
 -84.7797
 -71.7903
 -58.2312
 -43.8194
 -30.0686
 -32.6774
 -50.9718
 -67.9772
 -87.1051
 -99.2967
 -102.217
 -86.3945
 -68.7625
 -50.1222
 -31.7532
 -32.7942
 -51.5408
 -69.8874
 -87.8625
 -103.56
 -104.185
 -87.046
 -69.1644
 -52.0162
 -32.5636
 -31.4115
 -46.322
 -62.7672
 -75.8936
 -87.588
 -88.2693
 -75.4451
 -61.7144
 -46.7027
 -31.983
 -30.4397
 -41.7281
 -52.3228
 -62.54
 -73.8025
 -74.447
 -63.7425
 -53.6673
 -41.0549
 -30.6246
 -29.9053
 -36.1623
 -44.5786
 -51.4028
 -57.027
 -58.5026
 -51.7266
 -44.1986
 -36.4382
 -29.1069
 -28.9208
 -32.885
 -34.8017
 -37.493
 -40.4201
 -39.406
 -36.7636
 -34.9285
 -32.4649
 -28.5349
 -25.6699
 -29.2289
 -32.4796
 -35.6216
 -38.0105
 -38.1332
 -35.7943
 -32.8714
 -28.9891
 -25.9679
 -27.7153
 -37.2219
 -46.6962
 -55.3774
 -63.7808
 -63.4809
 -54.6396
 -46.4944
 -37.6875
 -28.4655
 -31.194
 -45.6008
 -60.4213
 -73.7214
 -86.4125
 -86.2717
 -74.0598
 -60.3677
 -46.7728
 -30.9069
 -34.1271
 -53.8941
 -71.9125
 -90.5852
 -111.334
 -112.761
 -92.4163
 -74.1753
 -55.7315
 -33.5558
 -37.0697
 -64.8017
 -90.7667
 -109.634
 -134.47
 -138.324
 -111.908
 -89.6921
 -62.9315
 -36.2687
 -37.7118
 -62.5575
 -89.8131
 -111.39
 -135.053
 -140.981
 -113.424
 -90.3598
 -62.2148
 -37.3414
 -35.8892
 -57.5143
 -77.3914
 -95.3563
 -115.309
 -117.974
 -100.962
 -78.2834
 -57.9635
 -35.2679
 -33.4369
 -50.2326
 -65.7472
 -80.3613
 -96.2766
 -96.5592
 -81.8883
 -66.0453
 -49.8839
 -33.5884
 -31.5539
 -42.6081
 -51.1608
 -61.2517
 -73.5454
 -72.5689
 -62.67
 -53.522
 -42.0061
 -32.3782
 -30.0019
 -35.086
 -37.7731
 -40.6421
 -45.0392
 -45.8301
 -41.8402
 -37.6945
 -34.6195
 -30.2279
 -27.234
 -31.4684
 -35.7502
 -39.2208
 -43.9078
 -44.5693
 -38.7434
 -34.8017
 -32.2375
 -27.0683
 -30.5242
 -42.4758
 -55.3023
 -63.8187
 -76.5522
 -79.2383
 -65.1859
 -54.5407
 -42.0649
 -30.8365
 -34.1283
 -54.2295
 -73.3208
 -90.8415
 -109.117
 -109.647
 -92.4041
 -72.0926
 -54.1552
 -34.1361
 -38.0463
 -63.36
 -90.7107
 -118.251
 -139.096
 -143.158
 -117.133
 -92.8708
 -65.833
 -37.4148
 -41.8805
 -77.821
 -108.3
 -141.328
 -170.307
 -171.407
 -141.349
 -109.982
 -75.3656
 -41.7626
 -42.302
 -77.3037
 -111.734
 -139.14
 -171.701
 -176.482
 -142.78
 -110.905
 -77.2482
 -42.6833
 -40.3527
 -67.0368
 -94.3501
 -122.309
 -143.628
 -146.51
 -120.735
 -94.3035
 -68.6744
 -40.1026
 -36.6885
 -58.7479
 -77.2141
 -101.196
 -117.546
 -120.247
 -100.021
 -77.2285
 -58.5522
 -37.2677
 -33.9981
 -47.297
 -61.2093
 -73.8151
 -85.3924
 -88.2213
 -74.2322
 -61.5061
 -47.0901
 -34.1253
 -32.1422
 -37.0099
 -40.4827
 -46.85
 -50.0752
 -52.675
 -44.7918
 -41.1701
 -36.9835
 -31.5333
 -27.7108
 -32.1972
 -36.148
 -40.9208
 -44.4101
 -45.2901
 -40.3475
 -35.6731
 -32.2025
 -28.0152
 -31.4681
 -44.4759
 -58.2898
 -68.7187
 -81.6668
 -79.7662
 -67.8759
 -56.353
 -45.4314
 -31.5541
 -36.1638
 -56.0113
 -75.567
 -95.0857
 -115.266
 -112.607
 -92.1386
 -74.3572
 -55.7484
 -35.4817
 -38.9135
 -69.3239
 -94.0752
 -118.494
 -140.625
 -151.323
 -122.157
 -94.5709
 -67.7867
 -39.4206
 -44.5339
 -81.344
 -114.541
 -147.866
 -179.158
 -180.418
 -145.692
 -112.018
 -79.6212
 -44.0769
 -44.2119
 -81.7365
 -117.862
 -149.42
 -181.816
 -181.043
 -151.242
 -115.422
 -79.5336
 -44.9541
 -41.7951
 -70.7437
 -100.944
 -125.585
 -154.016
 -153.98
 -125.631
 -102.558
 -69.8875
 -40.4182
 -38.2136
 -60.0638
 -82.3424
 -103.16
 -122.093
 -123.712
 -104.56
 -80.1388
 -61.3151
 -39.3659
 -34.7591
 -48.3936
 -63.4032
 -76.5469
 -89.1538
 -90.8835
 -76.2992
 -65.965
 -49.1462
 -35.6561
 -31.9188
 -37.3206
 -43.8628
 -47.4254
 -51.2451
 -52.638
 -48.0807
 -41.5357
 -36.8587
 -32.5425
 -28.4158
 -33.1219
 -35.6638
 -39.0734
 -42.0829
 -42.2473
 -39.2669
 -36.6303
 -32.0168
 -28.7421
 -31.9565
 -42.0596
 -53.562
 -62.4137
 -71.9126
 -72.506
 -63.3661
 -51.3577
 -42.3964
 -31.6243
 -34.1735
 -51.5311
 -67.4528
 -87.2855
 -98.3221
 -100.812
 -85.2332
 -68.4559
 -51.8266
 -34.8174
 -38.5666
 -60.6464
 -83.3367
 -104.408
 -126.602
 -128.738
 -105.59
 -84.0969
 -60.4799
 -37.6733
 -40.9134
 -70.7448
 -101.719
 -129.346
 -156.468
 -157.861
 -128.128
 -97.2688
 -71.5672
 -42.522
 -41.2833
 -72.6744
 -97.8702
 -131.422
 -155.329
 -157.894
 -126.973
 -98.5242
 -72.4537
 -42.8174
 -39.623
 -64.6883
 -88.394
 -110.56
 -135.409
 -135.783
 -110.039
 -88.4078
 -64.8692
 -39.7461
 -37.2792
 -56.7365
 -73.7729
 -92.143
 -110.341
 -109.943
 -90.2669
 -74.38
 -55.5089
 -37.326
 -34.9384
 -47.3216
 -58.8805
 -67.5569
 -80.0475
 -81.7222
 -67.8884
 -58.5637
 -46.3331
 -35.1306
 -33.5562
 -37.1639
 -42.0232
 -45.0212
 -48.7172
 -49.7696
 -45.0328
 -41.5575
 -37.9582
 -33.3864
 -29.4268
 -32.4004
 -34.7921
 -37.6219
 -39.6632
 -40.0017
 -38.5253
 -35.374
 -32.347
 -28.8359
 -30.7689
 -39.6104
 -47.4906
 -56.8283
 -62.5387
 -60.5381
 -55.7831
 -46.7615
 -38.4378
 -30.6139
 -33.8178
 -46.4172
 -60.6102
 -71.5544
 -82.8381
 -84.2544
 -73.4118
 -58.1886
 -46.6363
 -33.9598
 -35.7044
 -53.9416
 -71.1127
 -87.6325
 -104.663
 -108.164
 -88.7937
 -70.2108
 -54.8384
 -35.5686
 -39.4356
 -61.8645
 -83.01
 -105.585
 -127.847
 -124.721
 -105.92
 -84.3104
 -60.6904
 -39.1955
 -39.4134
 -62.3235
 -86.511
 -107.38
 -130.575
 -131.096
 -109.433
 -84.7286
 -62.9575
 -39.453
 -38.4889
 -57.749
 -75.2769
 -95.853
 -108.782
 -108.007
 -94.1572
 -74.7265
 -55.9076
 -38.1173
 -36.1534
 -51.0834
 -63.5672
 -76.9839
 -89.9596
 -92.0428
 -76.6535
 -63.9375
 -49.3284
 -36.4431
 -34.8601
 -42.7137
 -53.7427
 -61.9594
 -68.877
 -70.4287
 -60.6626
 -52.9944
 -43.7723
 -34.31
 -33.1116
 -38.7417
 -40.4755
 -43.0949
 -47.2937
 -46.4766
 -43.1728
 -40.9876
 -37.4071
 -33.3988
 -31.2187
 -32.8991
 -34.8674
 -36.0704
 -37.825
 -37.6247
 -36.2491
 -34.6829
 -32.7191
 -29.7776
 -31.584
 -36.2488
 -42.4234
 -46.8196
 -51.2365
 -52.6944
 -47.1503
 -41.5202
 -37.4503
 -31.5573
 -32.8273
 -41.6989
 -49.8413
 -58.4047
 -65.9465
 -66.2849
 -58.1911
 -50.224
 -41.3082
 -33.0634
 -34.1722
 -45.9749
 -57.7394
 -68.2403
 -80.8828
 -79.2698
 -69.4424
 -57.8943
 -47.4128
 -34.826
 -36.5748
 -51.3879
 -66.6702
 -79.5537
 -94.8994
 -95.4903
 -78.1845
 -65.4117
 -50.3365
 -35.8697
 -36.4435
 -51.3327
 -67.5891
 -81.9116
 -94.3541
 -93.5547
 -79.9053
 -65.597
 -52.6235
 -36.5143
 -36.1886
 -49.0261
 -59.8301
 -70.922
 -83.3213
 -82.8261
 -70.3655
 -59.4825
 -48.1673
 -35.1041
 -35.2022
 -43.5587
 -52.9479
 -61.2345
 -70.2998
 -70.35
 -61.3832
 -53.3298
 -42.9941
 -34.5932
 -34.2102
 -41.1502
 -46.4066
 -51.3129
 -57.1512
 -57.8417
 -50.7866
 -45.9649
 -40.2453
 -34.4879
 -34.5205
 -37.1867
 -39.1663
 -40.1824
 -43.8302
 -43.995
 -40.2112
 -39.4356
 -36.9462
 -33.7148
 -31.4951
 -33.1351
 -33.4137
 -33.8106
 -35.2753
 -34.3894
 -34.659
 -33.7928
 -33.0798
 -31.9794
 -31.9722
 -34.3143
 -35.9637
 -37.7612
 -40.2793
 -40.1264
 -38.53
 -35.6434
 -34.1344
 -31.8059
 -32.5556
 -35.7097
 -38.7096
 -41.2427
 -43.8519
 -45.3664
 -42.6789
 -38.7097
 -35.6295
 -32.654
 -33.0324
 -37.2544
 -42.3966
 -45.1769
 -50.5795
 -48.8275
 -45.9577
 -41.9162
 -38.0016
 -33.5659
 -33.7509
 -40.4701
 -44.1377
 -50.0132
 -57.0429
 -54.9241
 -50.1087
 -44.1772
 -40.2429
 -33.3863
 -34.2394
 -40.3505
 -44.8577
 -51.0008
 -56.2218
 -55.4808
 -51.0475
 -45.2842
 -39.7552
 -33.6015
 -33.8564
 -38.5994
 -42.9625
 -47.2544
 -52.4168
 -51.0872
 -47.668
 -42.9068
 -38.953
 -33.2368
 -34.1355
 -37.2624
 -40.3299
 -43.6759
 -47.1708
 -46.3558
 -43.2578
 -41.2276
 -38.1737
 -33.6473
 -34.2402
 -37.5383
 -39.1034
 -41.8982
 -43.4575
 -42.2165
 -40.965
 -39.2413
 -35.9285
 -33.858
 -35.1747
 -35.0443
 -36.8069
 -39.0431
 -40.1721
 -39.1416
 -38.6968
 -37.8003
 -36.679
 -33.917
