# vtk DataFile Version 2.0
Three-D cube divergence of heat flux and Q in volume elements
ASCII
DATASET UNSTRUCTURED_GRID

POINTS  1331  FLOAT
 -0.5 -0.5 -0.5
 -0.4 -0.5 -0.5
 -0.3 -0.5 -0.5
 -0.2 -0.5 -0.5
 -0.1 -0.5 -0.5
 0 -0.5 -0.5
 0.1 -0.5 -0.5
 0.2 -0.5 -0.5
 0.3 -0.5 -0.5
 0.4 -0.5 -0.5
 0.5 -0.5 -0.5
 -0.5 -0.4 -0.5
 -0.4 -0.4 -0.5
 -0.3 -0.4 -0.5
 -0.2 -0.4 -0.5
 -0.1 -0.4 -0.5
 0 -0.4 -0.5
 0.1 -0.4 -0.5
 0.2 -0.4 -0.5
 0.3 -0.4 -0.5
 0.4 -0.4 -0.5
 0.5 -0.4 -0.5
 -0.5 -0.3 -0.5
 -0.4 -0.3 -0.5
 -0.3 -0.3 -0.5
 -0.2 -0.3 -0.5
 -0.1 -0.3 -0.5
 0 -0.3 -0.5
 0.1 -0.3 -0.5
 0.2 -0.3 -0.5
 0.3 -0.3 -0.5
 0.4 -0.3 -0.5
 0.5 -0.3 -0.5
 -0.5 -0.2 -0.5
 -0.4 -0.2 -0.5
 -0.3 -0.2 -0.5
 -0.2 -0.2 -0.5
 -0.1 -0.2 -0.5
 0 -0.2 -0.5
 0.1 -0.2 -0.5
 0.2 -0.2 -0.5
 0.3 -0.2 -0.5
 0.4 -0.2 -0.5
 0.5 -0.2 -0.5
 -0.5 -0.1 -0.5
 -0.4 -0.1 -0.5
 -0.3 -0.1 -0.5
 -0.2 -0.1 -0.5
 -0.1 -0.1 -0.5
 0 -0.1 -0.5
 0.1 -0.1 -0.5
 0.2 -0.1 -0.5
 0.3 -0.1 -0.5
 0.4 -0.1 -0.5
 0.5 -0.1 -0.5
 -0.5 0 -0.5
 -0.4 0 -0.5
 -0.3 0 -0.5
 -0.2 0 -0.5
 -0.1 0 -0.5
 0 0 -0.5
 0.1 0 -0.5
 0.2 0 -0.5
 0.3 0 -0.5
 0.4 0 -0.5
 0.5 0 -0.5
 -0.5 0.1 -0.5
 -0.4 0.1 -0.5
 -0.3 0.1 -0.5
 -0.2 0.1 -0.5
 -0.1 0.1 -0.5
 0 0.1 -0.5
 0.1 0.1 -0.5
 0.2 0.1 -0.5
 0.3 0.1 -0.5
 0.4 0.1 -0.5
 0.5 0.1 -0.5
 -0.5 0.2 -0.5
 -0.4 0.2 -0.5
 -0.3 0.2 -0.5
 -0.2 0.2 -0.5
 -0.1 0.2 -0.5
 0 0.2 -0.5
 0.1 0.2 -0.5
 0.2 0.2 -0.5
 0.3 0.2 -0.5
 0.4 0.2 -0.5
 0.5 0.2 -0.5
 -0.5 0.3 -0.5
 -0.4 0.3 -0.5
 -0.3 0.3 -0.5
 -0.2 0.3 -0.5
 -0.1 0.3 -0.5
 0 0.3 -0.5
 0.1 0.3 -0.5
 0.2 0.3 -0.5
 0.3 0.3 -0.5
 0.4 0.3 -0.5
 0.5 0.3 -0.5
 -0.5 0.4 -0.5
 -0.4 0.4 -0.5
 -0.3 0.4 -0.5
 -0.2 0.4 -0.5
 -0.1 0.4 -0.5
 0 0.4 -0.5
 0.1 0.4 -0.5
 0.2 0.4 -0.5
 0.3 0.4 -0.5
 0.4 0.4 -0.5
 0.5 0.4 -0.5
 -0.5 0.5 -0.5
 -0.4 0.5 -0.5
 -0.3 0.5 -0.5
 -0.2 0.5 -0.5
 -0.1 0.5 -0.5
 0 0.5 -0.5
 0.1 0.5 -0.5
 0.2 0.5 -0.5
 0.3 0.5 -0.5
 0.4 0.5 -0.5
 0.5 0.5 -0.5
 -0.5 -0.5 -0.4
 -0.4 -0.5 -0.4
 -0.3 -0.5 -0.4
 -0.2 -0.5 -0.4
 -0.1 -0.5 -0.4
 0 -0.5 -0.4
 0.1 -0.5 -0.4
 0.2 -0.5 -0.4
 0.3 -0.5 -0.4
 0.4 -0.5 -0.4
 0.5 -0.5 -0.4
 -0.5 -0.4 -0.4
 -0.4 -0.4 -0.4
 -0.3 -0.4 -0.4
 -0.2 -0.4 -0.4
 -0.1 -0.4 -0.4
 0 -0.4 -0.4
 0.1 -0.4 -0.4
 0.2 -0.4 -0.4
 0.3 -0.4 -0.4
 0.4 -0.4 -0.4
 0.5 -0.4 -0.4
 -0.5 -0.3 -0.4
 -0.4 -0.3 -0.4
 -0.3 -0.3 -0.4
 -0.2 -0.3 -0.4
 -0.1 -0.3 -0.4
 0 -0.3 -0.4
 0.1 -0.3 -0.4
 0.2 -0.3 -0.4
 0.3 -0.3 -0.4
 0.4 -0.3 -0.4
 0.5 -0.3 -0.4
 -0.5 -0.2 -0.4
 -0.4 -0.2 -0.4
 -0.3 -0.2 -0.4
 -0.2 -0.2 -0.4
 -0.1 -0.2 -0.4
 0 -0.2 -0.4
 0.1 -0.2 -0.4
 0.2 -0.2 -0.4
 0.3 -0.2 -0.4
 0.4 -0.2 -0.4
 0.5 -0.2 -0.4
 -0.5 -0.1 -0.4
 -0.4 -0.1 -0.4
 -0.3 -0.1 -0.4
 -0.2 -0.1 -0.4
 -0.1 -0.1 -0.4
 0 -0.1 -0.4
 0.1 -0.1 -0.4
 0.2 -0.1 -0.4
 0.3 -0.1 -0.4
 0.4 -0.1 -0.4
 0.5 -0.1 -0.4
 -0.5 0 -0.4
 -0.4 0 -0.4
 -0.3 0 -0.4
 -0.2 0 -0.4
 -0.1 0 -0.4
 0 0 -0.4
 0.1 0 -0.4
 0.2 0 -0.4
 0.3 0 -0.4
 0.4 0 -0.4
 0.5 0 -0.4
 -0.5 0.1 -0.4
 -0.4 0.1 -0.4
 -0.3 0.1 -0.4
 -0.2 0.1 -0.4
 -0.1 0.1 -0.4
 0 0.1 -0.4
 0.1 0.1 -0.4
 0.2 0.1 -0.4
 0.3 0.1 -0.4
 0.4 0.1 -0.4
 0.5 0.1 -0.4
 -0.5 0.2 -0.4
 -0.4 0.2 -0.4
 -0.3 0.2 -0.4
 -0.2 0.2 -0.4
 -0.1 0.2 -0.4
 0 0.2 -0.4
 0.1 0.2 -0.4
 0.2 0.2 -0.4
 0.3 0.2 -0.4
 0.4 0.2 -0.4
 0.5 0.2 -0.4
 -0.5 0.3 -0.4
 -0.4 0.3 -0.4
 -0.3 0.3 -0.4
 -0.2 0.3 -0.4
 -0.1 0.3 -0.4
 0 0.3 -0.4
 0.1 0.3 -0.4
 0.2 0.3 -0.4
 0.3 0.3 -0.4
 0.4 0.3 -0.4
 0.5 0.3 -0.4
 -0.5 0.4 -0.4
 -0.4 0.4 -0.4
 -0.3 0.4 -0.4
 -0.2 0.4 -0.4
 -0.1 0.4 -0.4
 0 0.4 -0.4
 0.1 0.4 -0.4
 0.2 0.4 -0.4
 0.3 0.4 -0.4
 0.4 0.4 -0.4
 0.5 0.4 -0.4
 -0.5 0.5 -0.4
 -0.4 0.5 -0.4
 -0.3 0.5 -0.4
 -0.2 0.5 -0.4
 -0.1 0.5 -0.4
 0 0.5 -0.4
 0.1 0.5 -0.4
 0.2 0.5 -0.4
 0.3 0.5 -0.4
 0.4 0.5 -0.4
 0.5 0.5 -0.4
 -0.5 -0.5 -0.3
 -0.4 -0.5 -0.3
 -0.3 -0.5 -0.3
 -0.2 -0.5 -0.3
 -0.1 -0.5 -0.3
 0 -0.5 -0.3
 0.1 -0.5 -0.3
 0.2 -0.5 -0.3
 0.3 -0.5 -0.3
 0.4 -0.5 -0.3
 0.5 -0.5 -0.3
 -0.5 -0.4 -0.3
 -0.4 -0.4 -0.3
 -0.3 -0.4 -0.3
 -0.2 -0.4 -0.3
 -0.1 -0.4 -0.3
 0 -0.4 -0.3
 0.1 -0.4 -0.3
 0.2 -0.4 -0.3
 0.3 -0.4 -0.3
 0.4 -0.4 -0.3
 0.5 -0.4 -0.3
 -0.5 -0.3 -0.3
 -0.4 -0.3 -0.3
 -0.3 -0.3 -0.3
 -0.2 -0.3 -0.3
 -0.1 -0.3 -0.3
 0 -0.3 -0.3
 0.1 -0.3 -0.3
 0.2 -0.3 -0.3
 0.3 -0.3 -0.3
 0.4 -0.3 -0.3
 0.5 -0.3 -0.3
 -0.5 -0.2 -0.3
 -0.4 -0.2 -0.3
 -0.3 -0.2 -0.3
 -0.2 -0.2 -0.3
 -0.1 -0.2 -0.3
 0 -0.2 -0.3
 0.1 -0.2 -0.3
 0.2 -0.2 -0.3
 0.3 -0.2 -0.3
 0.4 -0.2 -0.3
 0.5 -0.2 -0.3
 -0.5 -0.1 -0.3
 -0.4 -0.1 -0.3
 -0.3 -0.1 -0.3
 -0.2 -0.1 -0.3
 -0.1 -0.1 -0.3
 0 -0.1 -0.3
 0.1 -0.1 -0.3
 0.2 -0.1 -0.3
 0.3 -0.1 -0.3
 0.4 -0.1 -0.3
 0.5 -0.1 -0.3
 -0.5 0 -0.3
 -0.4 0 -0.3
 -0.3 0 -0.3
 -0.2 0 -0.3
 -0.1 0 -0.3
 0 0 -0.3
 0.1 0 -0.3
 0.2 0 -0.3
 0.3 0 -0.3
 0.4 0 -0.3
 0.5 0 -0.3
 -0.5 0.1 -0.3
 -0.4 0.1 -0.3
 -0.3 0.1 -0.3
 -0.2 0.1 -0.3
 -0.1 0.1 -0.3
 0 0.1 -0.3
 0.1 0.1 -0.3
 0.2 0.1 -0.3
 0.3 0.1 -0.3
 0.4 0.1 -0.3
 0.5 0.1 -0.3
 -0.5 0.2 -0.3
 -0.4 0.2 -0.3
 -0.3 0.2 -0.3
 -0.2 0.2 -0.3
 -0.1 0.2 -0.3
 0 0.2 -0.3
 0.1 0.2 -0.3
 0.2 0.2 -0.3
 0.3 0.2 -0.3
 0.4 0.2 -0.3
 0.5 0.2 -0.3
 -0.5 0.3 -0.3
 -0.4 0.3 -0.3
 -0.3 0.3 -0.3
 -0.2 0.3 -0.3
 -0.1 0.3 -0.3
 0 0.3 -0.3
 0.1 0.3 -0.3
 0.2 0.3 -0.3
 0.3 0.3 -0.3
 0.4 0.3 -0.3
 0.5 0.3 -0.3
 -0.5 0.4 -0.3
 -0.4 0.4 -0.3
 -0.3 0.4 -0.3
 -0.2 0.4 -0.3
 -0.1 0.4 -0.3
 0 0.4 -0.3
 0.1 0.4 -0.3
 0.2 0.4 -0.3
 0.3 0.4 -0.3
 0.4 0.4 -0.3
 0.5 0.4 -0.3
 -0.5 0.5 -0.3
 -0.4 0.5 -0.3
 -0.3 0.5 -0.3
 -0.2 0.5 -0.3
 -0.1 0.5 -0.3
 0 0.5 -0.3
 0.1 0.5 -0.3
 0.2 0.5 -0.3
 0.3 0.5 -0.3
 0.4 0.5 -0.3
 0.5 0.5 -0.3
 -0.5 -0.5 -0.2
 -0.4 -0.5 -0.2
 -0.3 -0.5 -0.2
 -0.2 -0.5 -0.2
 -0.1 -0.5 -0.2
 0 -0.5 -0.2
 0.1 -0.5 -0.2
 0.2 -0.5 -0.2
 0.3 -0.5 -0.2
 0.4 -0.5 -0.2
 0.5 -0.5 -0.2
 -0.5 -0.4 -0.2
 -0.4 -0.4 -0.2
 -0.3 -0.4 -0.2
 -0.2 -0.4 -0.2
 -0.1 -0.4 -0.2
 0 -0.4 -0.2
 0.1 -0.4 -0.2
 0.2 -0.4 -0.2
 0.3 -0.4 -0.2
 0.4 -0.4 -0.2
 0.5 -0.4 -0.2
 -0.5 -0.3 -0.2
 -0.4 -0.3 -0.2
 -0.3 -0.3 -0.2
 -0.2 -0.3 -0.2
 -0.1 -0.3 -0.2
 0 -0.3 -0.2
 0.1 -0.3 -0.2
 0.2 -0.3 -0.2
 0.3 -0.3 -0.2
 0.4 -0.3 -0.2
 0.5 -0.3 -0.2
 -0.5 -0.2 -0.2
 -0.4 -0.2 -0.2
 -0.3 -0.2 -0.2
 -0.2 -0.2 -0.2
 -0.1 -0.2 -0.2
 0 -0.2 -0.2
 0.1 -0.2 -0.2
 0.2 -0.2 -0.2
 0.3 -0.2 -0.2
 0.4 -0.2 -0.2
 0.5 -0.2 -0.2
 -0.5 -0.1 -0.2
 -0.4 -0.1 -0.2
 -0.3 -0.1 -0.2
 -0.2 -0.1 -0.2
 -0.1 -0.1 -0.2
 0 -0.1 -0.2
 0.1 -0.1 -0.2
 0.2 -0.1 -0.2
 0.3 -0.1 -0.2
 0.4 -0.1 -0.2
 0.5 -0.1 -0.2
 -0.5 0 -0.2
 -0.4 0 -0.2
 -0.3 0 -0.2
 -0.2 0 -0.2
 -0.1 0 -0.2
 0 0 -0.2
 0.1 0 -0.2
 0.2 0 -0.2
 0.3 0 -0.2
 0.4 0 -0.2
 0.5 0 -0.2
 -0.5 0.1 -0.2
 -0.4 0.1 -0.2
 -0.3 0.1 -0.2
 -0.2 0.1 -0.2
 -0.1 0.1 -0.2
 0 0.1 -0.2
 0.1 0.1 -0.2
 0.2 0.1 -0.2
 0.3 0.1 -0.2
 0.4 0.1 -0.2
 0.5 0.1 -0.2
 -0.5 0.2 -0.2
 -0.4 0.2 -0.2
 -0.3 0.2 -0.2
 -0.2 0.2 -0.2
 -0.1 0.2 -0.2
 0 0.2 -0.2
 0.1 0.2 -0.2
 0.2 0.2 -0.2
 0.3 0.2 -0.2
 0.4 0.2 -0.2
 0.5 0.2 -0.2
 -0.5 0.3 -0.2
 -0.4 0.3 -0.2
 -0.3 0.3 -0.2
 -0.2 0.3 -0.2
 -0.1 0.3 -0.2
 0 0.3 -0.2
 0.1 0.3 -0.2
 0.2 0.3 -0.2
 0.3 0.3 -0.2
 0.4 0.3 -0.2
 0.5 0.3 -0.2
 -0.5 0.4 -0.2
 -0.4 0.4 -0.2
 -0.3 0.4 -0.2
 -0.2 0.4 -0.2
 -0.1 0.4 -0.2
 0 0.4 -0.2
 0.1 0.4 -0.2
 0.2 0.4 -0.2
 0.3 0.4 -0.2
 0.4 0.4 -0.2
 0.5 0.4 -0.2
 -0.5 0.5 -0.2
 -0.4 0.5 -0.2
 -0.3 0.5 -0.2
 -0.2 0.5 -0.2
 -0.1 0.5 -0.2
 0 0.5 -0.2
 0.1 0.5 -0.2
 0.2 0.5 -0.2
 0.3 0.5 -0.2
 0.4 0.5 -0.2
 0.5 0.5 -0.2
 -0.5 -0.5 -0.1
 -0.4 -0.5 -0.1
 -0.3 -0.5 -0.1
 -0.2 -0.5 -0.1
 -0.1 -0.5 -0.1
 0 -0.5 -0.1
 0.1 -0.5 -0.1
 0.2 -0.5 -0.1
 0.3 -0.5 -0.1
 0.4 -0.5 -0.1
 0.5 -0.5 -0.1
 -0.5 -0.4 -0.1
 -0.4 -0.4 -0.1
 -0.3 -0.4 -0.1
 -0.2 -0.4 -0.1
 -0.1 -0.4 -0.1
 0 -0.4 -0.1
 0.1 -0.4 -0.1
 0.2 -0.4 -0.1
 0.3 -0.4 -0.1
 0.4 -0.4 -0.1
 0.5 -0.4 -0.1
 -0.5 -0.3 -0.1
 -0.4 -0.3 -0.1
 -0.3 -0.3 -0.1
 -0.2 -0.3 -0.1
 -0.1 -0.3 -0.1
 0 -0.3 -0.1
 0.1 -0.3 -0.1
 0.2 -0.3 -0.1
 0.3 -0.3 -0.1
 0.4 -0.3 -0.1
 0.5 -0.3 -0.1
 -0.5 -0.2 -0.1
 -0.4 -0.2 -0.1
 -0.3 -0.2 -0.1
 -0.2 -0.2 -0.1
 -0.1 -0.2 -0.1
 0 -0.2 -0.1
 0.1 -0.2 -0.1
 0.2 -0.2 -0.1
 0.3 -0.2 -0.1
 0.4 -0.2 -0.1
 0.5 -0.2 -0.1
 -0.5 -0.1 -0.1
 -0.4 -0.1 -0.1
 -0.3 -0.1 -0.1
 -0.2 -0.1 -0.1
 -0.1 -0.1 -0.1
 0 -0.1 -0.1
 0.1 -0.1 -0.1
 0.2 -0.1 -0.1
 0.3 -0.1 -0.1
 0.4 -0.1 -0.1
 0.5 -0.1 -0.1
 -0.5 0 -0.1
 -0.4 0 -0.1
 -0.3 0 -0.1
 -0.2 0 -0.1
 -0.1 0 -0.1
 0 0 -0.1
 0.1 0 -0.1
 0.2 0 -0.1
 0.3 0 -0.1
 0.4 0 -0.1
 0.5 0 -0.1
 -0.5 0.1 -0.1
 -0.4 0.1 -0.1
 -0.3 0.1 -0.1
 -0.2 0.1 -0.1
 -0.1 0.1 -0.1
 0 0.1 -0.1
 0.1 0.1 -0.1
 0.2 0.1 -0.1
 0.3 0.1 -0.1
 0.4 0.1 -0.1
 0.5 0.1 -0.1
 -0.5 0.2 -0.1
 -0.4 0.2 -0.1
 -0.3 0.2 -0.1
 -0.2 0.2 -0.1
 -0.1 0.2 -0.1
 0 0.2 -0.1
 0.1 0.2 -0.1
 0.2 0.2 -0.1
 0.3 0.2 -0.1
 0.4 0.2 -0.1
 0.5 0.2 -0.1
 -0.5 0.3 -0.1
 -0.4 0.3 -0.1
 -0.3 0.3 -0.1
 -0.2 0.3 -0.1
 -0.1 0.3 -0.1
 0 0.3 -0.1
 0.1 0.3 -0.1
 0.2 0.3 -0.1
 0.3 0.3 -0.1
 0.4 0.3 -0.1
 0.5 0.3 -0.1
 -0.5 0.4 -0.1
 -0.4 0.4 -0.1
 -0.3 0.4 -0.1
 -0.2 0.4 -0.1
 -0.1 0.4 -0.1
 0 0.4 -0.1
 0.1 0.4 -0.1
 0.2 0.4 -0.1
 0.3 0.4 -0.1
 0.4 0.4 -0.1
 0.5 0.4 -0.1
 -0.5 0.5 -0.1
 -0.4 0.5 -0.1
 -0.3 0.5 -0.1
 -0.2 0.5 -0.1
 -0.1 0.5 -0.1
 0 0.5 -0.1
 0.1 0.5 -0.1
 0.2 0.5 -0.1
 0.3 0.5 -0.1
 0.4 0.5 -0.1
 0.5 0.5 -0.1
 -0.5 -0.5 0
 -0.4 -0.5 0
 -0.3 -0.5 0
 -0.2 -0.5 0
 -0.1 -0.5 0
 0 -0.5 0
 0.1 -0.5 0
 0.2 -0.5 0
 0.3 -0.5 0
 0.4 -0.5 0
 0.5 -0.5 0
 -0.5 -0.4 0
 -0.4 -0.4 0
 -0.3 -0.4 0
 -0.2 -0.4 0
 -0.1 -0.4 0
 0 -0.4 0
 0.1 -0.4 0
 0.2 -0.4 0
 0.3 -0.4 0
 0.4 -0.4 0
 0.5 -0.4 0
 -0.5 -0.3 0
 -0.4 -0.3 0
 -0.3 -0.3 0
 -0.2 -0.3 0
 -0.1 -0.3 0
 0 -0.3 0
 0.1 -0.3 0
 0.2 -0.3 0
 0.3 -0.3 0
 0.4 -0.3 0
 0.5 -0.3 0
 -0.5 -0.2 0
 -0.4 -0.2 0
 -0.3 -0.2 0
 -0.2 -0.2 0
 -0.1 -0.2 0
 0 -0.2 0
 0.1 -0.2 0
 0.2 -0.2 0
 0.3 -0.2 0
 0.4 -0.2 0
 0.5 -0.2 0
 -0.5 -0.1 0
 -0.4 -0.1 0
 -0.3 -0.1 0
 -0.2 -0.1 0
 -0.1 -0.1 0
 0 -0.1 0
 0.1 -0.1 0
 0.2 -0.1 0
 0.3 -0.1 0
 0.4 -0.1 0
 0.5 -0.1 0
 -0.5 0 0
 -0.4 0 0
 -0.3 0 0
 -0.2 0 0
 -0.1 0 0
 0 0 0
 0.1 0 0
 0.2 0 0
 0.3 0 0
 0.4 0 0
 0.5 0 0
 -0.5 0.1 0
 -0.4 0.1 0
 -0.3 0.1 0
 -0.2 0.1 0
 -0.1 0.1 0
 0 0.1 0
 0.1 0.1 0
 0.2 0.1 0
 0.3 0.1 0
 0.4 0.1 0
 0.5 0.1 0
 -0.5 0.2 0
 -0.4 0.2 0
 -0.3 0.2 0
 -0.2 0.2 0
 -0.1 0.2 0
 0 0.2 0
 0.1 0.2 0
 0.2 0.2 0
 0.3 0.2 0
 0.4 0.2 0
 0.5 0.2 0
 -0.5 0.3 0
 -0.4 0.3 0
[...]
CELL_DATA 1000
FIELD DOMAIN 2
VOL_DIV_q 1 1000 FLOAT 
 6.67423
 7.00565
 6.31749
 6.88382
 6.93422
 6.57525
 6.57838
 7.13026
 6.56438
 7.30844
 6.65871
 6.87627
 6.4932
 6.36888
 7.0904
 6.76842
 6.1796
 6.92684
 6.39343
 6.65888
 7.10308
 6.96753
 6.80572
 7.08772
 7.36613
 6.68299
 6.84085
 7.13764
 6.73967
 6.94013
 7.12869
 7.17955
 6.44555
 6.52641
 6.88755
 6.42179
 6.8665
 6.57898
 7.25103
 6.46695
 7.00375
 6.89746
 6.56376
 7.02356
 6.98502
 6.7373
 6.48334
 6.44353
 6.60716
 6.75816
 6.6596
 6.85202
 6.50617
 6.9663
 7.11814
 6.51976
 6.97381
 6.51699
 7.16195
 6.85978
 6.55458
 6.70207
 6.42544
 7.25353
 7.13043
 7.11044
 6.60032
 6.9517
 6.99393
 6.7693
 6.97233
 7.02049
 6.88475
 7.07045
 6.75616
 6.69456
 6.51852
 7.09086
 6.27366
 7.15416
 6.45825
 6.85766
 6.91377
 6.95069
 7.19409
 6.84966
 6.11007
 6.74774
 6.97062
 6.87509
 6.78473
 6.63152
 6.75369
 6.64451
 6.97449
 6.91773
 6.03767
 6.23063
 6.74949
 6.36275
 1.63774
 1.66481
 1.75788
 1.82976
 1.58662
 1.60424
 1.76733
 1.64697
 1.7336
 1.76791
 1.6956
 1.68919
 1.73845
 1.6866
 1.88815
 1.64371
 1.72079
 1.56982
 1.63732
 1.73604
 1.58681
 1.57287
 1.59528
 1.56771
 1.83817
 1.69937
 1.75711
 1.70038
 1.73054
 1.82605
 1.59453
 1.76286
 1.67364
 1.76132
 1.65068
 1.71528
 1.59813
 1.72598
 1.59255
 1.69883
 1.69289
 1.68187
 1.68526
 1.9303
 1.75493
 1.8041
 1.66452
 1.64426
 1.60807
 1.66866
 1.76744
 1.75375
 1.70952
 1.69271
 1.64803
 1.62314
 1.7501
 1.68751
 1.66622
 1.79038
 1.71461
 1.61552
 1.68083
 1.76682
 1.72461
 1.84498
 1.83489
 1.64192
 1.78165
 1.70898
 1.75807
 1.62422
 1.75574
 1.71989
 1.75369
 1.74843
 1.7164
 1.74759
 1.68722
 1.80823
 1.62941
 1.62371
 1.58364
 1.70186
 1.83441
 1.65909
 1.59596
 1.67658
 1.69561
 1.65803
 1.68142
 1.634
 1.76378
 1.82989
 1.77139
 1.60318
 1.81591
 1.61647
 1.76542
 1.69276
 0.50821
 0.484273
 0.490618
 0.53229
 0.538834
 0.470922
 0.528079
 0.539406
 0.429097
 0.438646
 0.509167
 0.480381
 0.502677
 0.534411
 0.516989
 0.50135
 0.489584
 0.524549
 0.528223
 0.518198
 0.532448
 0.540721
 0.542552
 0.514421
 0.549024
 0.496091
 0.535039
 0.525398
 0.547195
 0.439433
 0.438517
 0.599029
 0.488903
 0.552535
 0.475573
 0.533278
 0.505962
 0.431983
 0.432596
 0.528945
 0.617008
 0.463797
 0.522889
 0.523947
 0.551377
 0.543185
 0.482381
 0.537539
 0.524988
 0.496441
 0.501546
 0.462466
 0.553289
 0.454763
 0.515735
 0.513716
 0.575019
 0.519123
 0.467441
 0.53874
 0.5255
 0.517005
 0.492011
 0.523864
 0.518699
 0.504756
 0.519181
 0.535346
 0.555491
 0.500671
 0.458204
 0.561215
 0.493621
 0.521614
 0.545858
 0.558947
 0.586355
 0.481393
 0.564793
 0.552876
 0.522996
 0.570825
 0.512076
 0.514661
 0.513204
 0.531404
 0.568987
 0.504064
 0.508905
 0.515677
 0.519195
 0.596733
 0.475175
 0.554113
 0.48301
 0.597388
 0.527306
 0.525855
 0.553448
 0.49829
 0.193428
 0.157529
 0.206028
 0.159435
 0.172693
 0.156909
 0.182965
 0.161771
 0.169149
 0.187591
 0.20441
 0.150394
 0.168938
 0.17296
 0.170704
 0.154473
 0.177175
 0.218825
 0.170122
 0.200268
 0.15527
 0.146761
 0.174152
 0.162568
 0.152621
 0.167206
 0.168435
 0.170921
 0.162486
 0.181951
 0.184551
 0.179168
 0.158857
 0.175637
 0.183233
 0.169447
 0.171569
 0.183283
 0.194814
 0.152738
 0.192585
 0.16931
 0.173764
 0.169202
 0.176559
 0.172752
 0.170146
 0.164581
 0.187514
 0.143209
 0.176121
 0.15968
 0.17218
 0.190897
 0.156422
 0.158123
 0.174491
 0.172087
 0.189094
 0.180832
 0.176058
 0.167204
 0.229928
 0.173786
 0.164086
 0.190851
 0.158652
 0.170458
 0.168283
 0.18264
 0.155263
 0.172796
 0.191965
 0.169773
 0.148292
 0.172736
 0.182988
 0.173942
 0.176676
 0.168544
 0.167
 0.17002
 0.165011
 0.156103
 0.182514
 0.173705
 0.154593
 0.180644
 0.165106
 0.1682
 0.219288
 0.172612
 0.148485
 0.183043
 0.13945
 0.189005
 0.18103
 0.184294
 0.180112
 0.187742
 0.0798492
 0.0813432
 0.0776716
 0.0630966
 0.0708621
 0.0740659
 0.0692496
 0.076423
 0.065456
 0.0786553
 0.0688793
 0.0768564
 0.0807779
 0.0900113
 0.0769154
 0.0759844
 0.0706728
 0.082881
 0.0788933
 0.0725593
 0.0739732
 0.0840695
 0.0743645
 0.0721367
 0.0651664
 0.0812604
 0.0624258
 0.083172
 0.0729099
 0.0790825
 0.0656457
 0.0783146
 0.0720256
 0.0781678
 0.0818896
 0.0798318
 0.0764298
 0.0791596
 0.0743685
 0.0696985
 0.0693641
 0.0696057
 0.077279
 0.0739167
 0.0759888
 0.0727581
 0.0878422
 0.0771174
 0.0811518
 0.0707471
 0.0755096
 0.0856331
 0.0837605
 0.0681187
 0.0699515
 0.0760318
 0.0781906
 0.0737746
 0.0658098
 0.0790071
 0.0766248
 0.0816824
 0.0767038
 0.0732327
 0.0805656
 0.070576
 0.0843129
 0.0667575
 0.0705219
 0.068483
 0.0674164
 0.075528
 0.0703598
 0.0750345
 0.0849822
 0.0692078
 0.0705679
 0.0727661
 0.0590761
 0.0753116
 0.0715479
 0.0861372
 0.0730133
 0.0741246
 0.0664747
 0.0729395
 0.0676426
 0.0747372
 0.0706009
 0.0734516
 0.0825365
 0.0612224
 0.0726622
 0.0800509
 0.0795284
 0.0689019
 0.0846849
 0.0678646
 0.077748
 0.074318
 0.0786585
 0.0692368
 0.0727905
 0.0811612
 0.0763914
 0.0830753
 0.0764602
 0.0731849
 0.0753844
 0.068745
 0.0787804
 0.0662083
 0.0711412
 0.0702502
 0.0730092
 0.0814223
 0.0932531
 0.0643212
 0.0673935
 0.0742948
 0.0867163
 0.0853867
 0.0679999
 0.0827817
 0.0602052
 0.0675894
 0.0800699
 0.0768617
 0.0689849
 0.0724492
 0.0787723
 0.084388
 0.071289
 0.0688391
 0.0742562
 0.0753242
 0.0778225
 0.0666012
 0.0748912
 0.0720989
 0.0793708
 0.0783729
 0.0710155
 0.0647659
 0.0727414
 0.0623066
 0.0750739
 0.0669337
 0.0756013
 0.0584265
 0.0908159
 0.0738414
 0.0671521
 0.07464
 0.0686742
 0.080742
 0.0693351
 0.069745
 0.0665443
 0.0660389
 0.0792997
 0.0860982
 0.0825245
 0.0652391
 0.0639393
 0.0748149
 0.0675018
 0.0731843
 0.0725769
 0.0770075
 0.0693277
 0.0684732
 0.0780127
 0.0726304
 0.0760012
 0.068705
 0.0680579
 0.0805835
 0.0843521
 0.0746569
 0.0666888
 0.0756957
 0.0722506
 0.0764287
 0.0781321
 0.0733705
 0.0772508
 0.0756519
 0.075146
 0.0789448
 0.0721135
 0.082388
 0.0706335
 0.0698703
 0.0716238
 0.0673676
 0.0776095
 0.0799795
 0.0667873
 0.0694584
 0.168453
 0.150559
 0.14625
 0.169705
 0.165424
 0.174069
 0.156772
 0.200165
 0.163624
 0.16493
 0.172031
 0.185903
 0.186899
 0.173519
 0.199454
 0.151638
 0.179687
 0.187993
 0.165567
 0.175885
 0.160842
 0.155389
 0.165633
 0.190857
 0.155743
 0.170507
 0.179146
 0.166374
 0.16394
 0.176693
 0.156132
 0.162331
 0.172816
 0.203305
 0.156912
 0.174611
 0.17216
 0.17667
 0.167246
 0.165654
 0.18581
 0.175813
 0.190838
 0.186432
 0.158422
 0.178977
 0.187632
 0.184118
 0.165631
 0.157177
 0.143683
 0.163861
 0.176844
 0.175737
 0.169354
 0.14512
 0.171141
 0.134244
 0.172561
 0.175701
 0.179516
 0.169414
 0.204179
 0.174801
 0.149206
 0.188294
 0.175355
 0.171616
 0.180581
 0.194741
 0.152172
 0.181468
 0.166772
 0.176577
 0.166576
 0.181876
 0.167732
 0.163346
 0.141017
 0.176218
 0.148109
 0.174402
 0.170015
 0.165163
 0.189373
 0.178555
 0.171675
 0.200628
 0.169204
 0.158445
 0.158897
 0.196473
 0.163974
 0.175428
 0.167973
 0.156155
 0.166862
 0.197321
 0.166248
 0.188318
 0.489437
 0.584814
 0.565777
 0.466107
 0.554541
 0.544783
 0.469808
 0.465716
 0.519979
 0.470585
 0.495111
 0.532368
 0.529329
 0.572345
 0.527892
 0.540892
 0.55186
 0.525483
 0.491709
 0.561615
 0.504539
 0.48739
 0.503135
 0.506425
 0.486865
 0.573437
 0.504302
 0.452408
 0.550868
 0.518031
 0.558215
 0.542769
 0.545051
 0.513775
 0.48036
 0.553578
 0.54785
 0.492526
 0.547009
 0.494077
 0.540926
 0.549174
 0.520208
 0.505333
 0.567215
 0.597475
 0.47144
 0.492373
 0.54793
 0.520232
 0.521347
 0.519764
 0.559706
 0.47595
 0.540007
 0.531797
 0.543788
 0.575939
 0.483823
 0.523591
 0.526172
 0.553452
 0.432666
 0.534191
 0.56243
 0.530283
 0.470342
 0.508122
 0.518475
 0.429643
 0.519484
 0.54916
 0.521316
 0.536925
 0.550976
 0.50431
 0.595991
 0.521829
 0.499568
 0.545071
 0.56744
 0.525696
 0.486955
 0.541314
 0.547837
 0.567085
 0.571383
 0.496176
 0.511783
 0.553771
 0.522103
 0.543156
 0.514047
 0.477865
 0.519114
 0.559575
 0.58324
 0.544408
 0.543309
 0.509892
 1.80737
 1.79422
 1.7001
 1.78796
 1.70561
 1.71794
 1.74315
 1.69409
 1.67487
 1.64313
 1.75099
 1.78033
 1.77963
 1.58983
 1.5435
 1.81609
 1.71103
 1.6674
 1.65412
 1.75411
 1.83586
 1.67092
 1.7429
 1.60207
 1.48817
 1.86446
 1.56512
 1.78829
 1.76918
 1.65265
 1.54652
 1.70555
 1.66309
 1.84424
 1.81596
 1.7646
 1.68331
 1.60335
 1.81641
 1.78832
 1.79394
 1.71292
 1.71548
 1.74686
 1.60494
 1.67882
 1.78788
 1.73552
 1.66197
 1.81158
 1.66239
 1.67325
 1.67903
 1.77265
 1.68467
 1.65812
 1.56629
 1.75104
 1.63616
 1.51631
 1.53666
 1.47442
 1.80703
 1.72484
 1.79851
 1.83249
 1.68346
 1.91899
 1.8513
 1.66173
 1.84923
 1.65092
 1.89238
 1.63178
 1.74441
 1.80242
 1.62725
 1.72245
 1.68425
 1.72358
 1.70481
 1.68917
 1.55473
 1.71824
 1.70809
 1.74225
 1.77098
 1.86663
 1.56977
 1.88124
 1.68694
 1.59744
 1.55982
 1.69188
 1.74098
 1.90012
 1.71916
 1.72742
 1.71903
 1.62777
 6.81694
 6.43892
 6.98639
 6.73464
 6.76405
 7.02963
 6.93586
 6.89636
 6.41573
 6.46548
 6.42752
 6.48191
 6.76973
 6.78188
 7.29206
 6.37581
 6.50327
 6.58865
 6.37145
 6.60993
 6.91828
 6.84894
 6.93424
 6.91931
 6.95019
 6.53514
 6.79315
 6.77772
 6.68537
 6.7528
 6.71595
 6.61031
 6.5742
 6.74585
 7.01022
 7.03827
 6.5586
 6.9216
 6.48471
 6.99877
 7.08615
 7.00528
 6.26684
 7.39228
 6.87554
 6.743
 7.17802
 6.93103
 6.52348
 7.05364
 6.95452
 6.24936
 6.63738
 6.56039
 6.73875
 5.88904
 6.68205
 6.59798
 6.97354
 6.55003
 6.86288
 6.94733
 6.42461
 6.83883
 6.70144
 6.98271
 6.54503
 6.64055
 7.04338
 7.11052
 6.78863
 7.04732
 6.53617
 7.06572
 6.87907
 6.84929
 7.19957
 6.62853
 7.20016
 6.71165
 6.78764
 6.83707
 6.75241
 6.68234
 6.70946
 6.87833
 6.70563
 6.7682
 6.92429
 6.6163
 6.57584
 6.9079
 6.58065
 6.69277
 6.71679
 6.92417
 6.99373
 6.41312
 7.31852
 6.86108

Vol_HEAT_Q 1 1000 FLOAT 
 0.00667423
 0.00700565
 0.00631749
 0.00688382
 0.00693422
 0.00657525
 0.00657838
 0.00713026
 0.00656438
 0.00730844
 0.00665871
 0.00687627
 0.0064932
 0.00636888
 0.0070904
 0.00676842
 0.0061796
 0.00692684
 0.00639343
 0.00665888
 0.00710308
 0.00696753
 0.00680572
 0.00708772
 0.00736613
 0.00668299
 0.00684085
 0.00713764
 0.00673967
 0.00694013
 0.00712869
 0.00717955
 0.00644555
 0.00652641
 0.00688755
 0.00642179
 0.0068665
 0.00657898
 0.00725103
 0.00646695
 0.00700375
 0.00689746
 0.00656376
 0.00702356
 0.00698502
 0.0067373
 0.00648334
 0.00644353
 0.00660716
 0.00675816
 0.0066596
 0.00685202
 0.00650617
 0.0069663
 0.00711814
 0.00651976
 0.00697381
 0.00651699
 0.00716195
 0.00685978
 0.00655458
 0.00670207
 0.00642544
 0.00725353
 0.00713043
 0.00711044
 0.00660032
 0.0069517
 0.00699393
 0.0067693
 0.00697233
 0.00702049
 0.00688475
 0.00707045
 0.00675616
 0.00669456
 0.00651852
 0.00709086
 0.00627366
 0.00715416
 0.00645825
 0.00685766
 0.00691377
 0.00695069
 0.00719409
 0.00684966
 0.00611007
 0.00674774
 0.00697062
 0.00687509
 0.00678473
 0.00663152
 0.00675369
 0.00664451
 0.00697449
 0.00691773
 0.00603767
 0.00623063
 0.00674949
 0.00636275
 0.00163774
 0.00166481
 0.00175788
 0.00182976
 0.00158662
 0.00160424
 0.00176733
 0.00164697
 0.0017336
 0.00176791
 0.0016956
 0.00168919
 0.00173845
 0.0016866
 0.00188815
 0.00164371
 0.00172079
 0.00156982
 0.00163732
 0.00173604
 0.00158681
 0.00157287
 0.00159528
 0.00156771
 0.00183817
 0.00169937
 0.00175711
 0.00170038
 0.00173054
 0.00182605
 0.00159453
 0.00176286
 0.00167364
 0.00176132
 0.00165068
 0.00171528
 0.00159813
 0.00172598
 0.00159255
 0.00169883
 0.00169289
 0.00168187
 0.00168526
 0.0019303
 0.00175493
 0.0018041
 0.00166452
 0.00164426
 0.00160807
 0.00166866
 0.00176744
 0.00175375
 0.00170952
 0.00169271
 0.00164803
 0.00162314
 0.0017501
 0.00168751
 0.00166622
 0.00179038
 0.00171461
 0.00161552
 0.00168083
 0.00176682
 0.00172461
 0.00184498
 0.00183489
 0.00164192
 0.00178165
 0.00170898
 0.00175807
 0.00162422
 0.00175574
 0.00171989
 0.00175369
 0.00174843
 0.0017164
 0.00174759
 0.00168722
 0.00180823
 0.00162941
 0.00162371
 0.00158364
 0.00170186
 0.00183441
 0.00165909
 0.00159596
 0.00167658
 0.00169561
 0.00165803
 0.00168142
 0.001634
 0.00176378
 0.00182989
 0.00177139
 0.00160318
 0.00181591
 0.00161647
 0.00176542
 0.00169276
 0.00050821
 0.000484273
 0.000490618
 0.00053229
 0.000538834
 0.000470922
 0.000528079
 0.000539406
 0.000429097
 0.000438646
 0.000509167
 0.000480381
 0.000502677
 0.000534411
 0.000516989
 0.00050135
 0.000489584
 0.000524549
 0.000528223
 0.000518198
 0.000532448
 0.000540721
 0.000542552
 0.000514421
 0.000549024
 0.000496091
 0.000535039
 0.000525398
 0.000547195
 0.000439433
 0.000438517
 0.000599029
 0.000488903
 0.000552535
 0.000475573
 0.000533278
 0.000505962
 0.000431983
 0.000432596
 0.000528945
 0.000617008
 0.000463797
 0.000522889
 0.000523947
 0.000551377
 0.000543185
 0.000482381
 0.000537539
 0.000524988
 0.000496441
 0.000501546
 0.000462466
 0.000553289
 0.000454763
 0.000515735
 0.000513716
 0.000575019
 0.000519123
 0.000467441
 0.00053874
 0.0005255
 0.000517005
 0.000492011
 0.000523864
 0.000518699
 0.000504756
 0.000519181
 0.000535346
 0.000555491
 0.000500671
 0.000458204
 0.000561215
 0.000493621
 0.000521614
 0.000545858
 0.000558947
 0.000586355
 0.000481393
 0.000564793
 0.000552876
 0.000522996
 0.000570825
 0.000512076
 0.000514661
 0.000513204
 0.000531404
 0.000568987
 0.000504064
 0.000508905
 0.000515677
 0.000519195
 0.000596733
 0.000475175
 0.000554113
 0.00048301
 0.000597388
 0.000527306
 0.000525855
 0.000553448
 0.00049829
 0.000193428
 0.000157529
 0.000206028
 0.000159435
 0.000172693
 0.000156909
 0.000182965
 0.000161771
 0.000169149
 0.000187591
 0.00020441
 0.000150394
 0.000168938
 0.00017296
 0.000170704
 0.000154473
 0.000177175
 0.000218825
 0.000170122
 0.000200268
 0.00015527
 0.000146761
 0.000174152
 0.000162568
 0.000152621
 0.000167206
 0.000168435
 0.000170921
 0.000162486
 0.000181951
 0.000184551
 0.000179168
 0.000158857
 0.000175637
 0.000183233
 0.000169447
 0.000171569
 0.000183283
 0.000194814
 0.000152738
 0.000192585
 0.00016931
 0.000173764
 0.000169202
 0.000176559
 0.000172752
 0.000170146
 0.000164581
 0.000187514
 0.000143209
 0.000176121
 0.00015968
 0.00017218
 0.000190897
 0.000156422
 0.000158123
 0.000174491
 0.000172087
 0.000189094
 0.000180832
 0.000176058
 0.000167204
 0.000229928
 0.000173786
 0.000164086
 0.000190851
 0.000158652
 0.000170458
 0.000168283
 0.00018264
 0.000155263
 0.000172796
 0.000191965
 0.000169773
 0.000148292
 0.000172736
 0.000182988
 0.000173942
 0.000176676
 0.000168544
 0.000167
 0.00017002
 0.000165011
 0.000156103
 0.000182514
 0.000173705
 0.000154593
 0.000180644
 0.000165106
 0.0001682
 0.000219288
 0.000172612
 0.000148485
 0.000183043
 0.00013945
 0.000189005
 0.00018103
 0.000184294
 0.000180112
 0.000187742
 7.98492e-05
 8.13432e-05
 7.76716e-05
 6.30966e-05
 7.08621e-05
 7.40659e-05
 6.92496e-05
 7.6423e-05
 6.5456e-05
 7.86553e-05
 6.88793e-05
 7.68564e-05
 8.07779e-05
 9.00113e-05
 7.69154e-05
 7.59844e-05
 7.06728e-05
 8.2881e-05
 7.88933e-05
 7.25593e-05
 7.39732e-05
 8.40695e-05
 7.43645e-05
 7.21367e-05
 6.51664e-05
 8.12604e-05
 6.24258e-05
 8.3172e-05
 7.29099e-05
 7.90825e-05
 6.56457e-05
 7.83146e-05
 7.20256e-05
 7.81678e-05
 8.18896e-05
 7.98318e-05
 7.64298e-05
 7.91596e-05
 7.43685e-05
 6.96985e-05
 6.93641e-05
 6.96057e-05
 7.7279e-05
 7.39167e-05
 7.59888e-05
 7.27581e-05
 8.78422e-05
 7.71174e-05
 8.11518e-05
 7.07471e-05
 7.55096e-05
 8.56331e-05
 8.37605e-05
 6.81187e-05
 6.99515e-05
 7.60318e-05
 7.81906e-05
 7.37746e-05
 6.58098e-05
 7.90071e-05
 7.66248e-05
 8.16824e-05
 7.67038e-05
 7.32327e-05
 8.05656e-05
 7.0576e-05
 8.43129e-05
 6.67575e-05
 7.05219e-05
 6.8483e-05
 6.74164e-05
 7.5528e-05
 7.03598e-05
 7.50345e-05
 8.49822e-05
 6.92078e-05
 7.05679e-05
 7.27661e-05
 5.90761e-05
 7.53116e-05
 7.15479e-05
 8.61372e-05
 7.30133e-05
 7.41246e-05
 6.64747e-05
 7.29395e-05
 6.76426e-05
 7.47372e-05
 7.06009e-05
 7.34516e-05
 8.25365e-05
 6.12224e-05
 7.26622e-05
 8.00509e-05
 7.95284e-05
 6.89019e-05
 8.46849e-05
 6.78646e-05
 7.7748e-05
 7.4318e-05
 7.86585e-05
 6.92368e-05
 7.27905e-05
 8.11612e-05
 7.63914e-05
 8.30753e-05
 7.64602e-05
 7.31849e-05
 7.53844e-05
 6.8745e-05
 7.87804e-05
 6.62083e-05
 7.11412e-05
 7.02502e-05
 7.30092e-05
 8.14223e-05
 9.32531e-05
 6.43212e-05
 6.73935e-05
 7.42948e-05
 8.67163e-05
 8.53867e-05
 6.79999e-05
 8.27817e-05
 6.02052e-05
 6.75894e-05
 8.00699e-05
 7.68617e-05
 6.89849e-05
 7.24492e-05
 7.87723e-05
 8.4388e-05
 7.1289e-05
 6.88391e-05
 7.42562e-05
 7.53242e-05
 7.78225e-05
 6.66012e-05
 7.48912e-05
 7.20989e-05
 7.93708e-05
 7.83729e-05
 7.10155e-05
 6.47659e-05
 7.27414e-05
 6.23066e-05
 7.50739e-05
 6.69337e-05
 7.56013e-05
 5.84265e-05
 9.08159e-05
 7.38414e-05
 6.71521e-05
 7.464e-05
 6.86742e-05
 8.0742e-05
 6.93351e-05
 6.9745e-05
 6.65443e-05
 6.60389e-05
 7.92997e-05
 8.60982e-05
 8.25245e-05
 6.52391e-05
 6.39393e-05
 7.48149e-05
 6.75018e-05
 7.31843e-05
 7.25769e-05
 7.70075e-05
 6.93277e-05
 6.84732e-05
 7.80127e-05
 7.26304e-05
 7.60012e-05
 6.8705e-05
 6.80579e-05
 8.05835e-05
 8.43521e-05
 7.46569e-05
 6.66888e-05
 7.56957e-05
 7.22506e-05
 7.64287e-05
 7.81321e-05
 7.33705e-05
 7.72508e-05
 7.56519e-05
 7.5146e-05
 7.89448e-05
 7.21135e-05
 8.2388e-05
 7.06335e-05
 6.98703e-05
 7.16238e-05
 6.73676e-05
 7.76095e-05
 7.99795e-05
 6.67873e-05
 6.94584e-05
 0.000168453
 0.000150559
 0.00014625
 0.000169705
 0.000165424
 0.000174069
 0.000156772
 0.000200165
 0.000163624
 0.00016493
 0.000172031
 0.000185903
 0.000186899
 0.000173519
 0.000199454
 0.000151638
 0.000179687
 0.000187993
 0.000165567
 0.000175885
 0.000160842
 0.000155389
 0.000165633
 0.000190857
 0.000155743
 0.000170507
 0.000179146
 0.000166374
 0.00016394
 0.000176693
 0.000156132
 0.000162331
 0.000172816
 0.000203305
 0.000156912
 0.000174611
 0.00017216
 0.00017667
 0.000167246
 0.000165654
 0.00018581
 0.000175813
 0.000190838
 0.000186432
 0.000158422
 0.000178977
 0.000187632
 0.000184118
 0.000165631
 0.000157177
 0.000143683
 0.000163861
 0.000176844
 0.000175737
 0.000169354
 0.00014512
 0.000171141
 0.000134244
 0.000172561
 0.000175701
 0.000179516
 0.000169414
 0.000204179
 0.000174801
 0.000149206
 0.000188294
 0.000175355
 0.000171616
 0.000180581
 0.000194741
 0.000152172
 0.000181468
 0.000166772
 0.000176577
 0.000166576
 0.000181876
 0.000167732
 0.000163346
 0.000141017
 0.000176218
 0.000148109
 0.000174402
 0.000170015
 0.000165163
 0.000189373
 0.000178555
 0.000171675
 0.000200628
 0.000169204
 0.000158445
 0.000158897
 0.000196473
 0.000163974
 0.000175428
 0.000167973
 0.000156155
 0.000166862
 0.000197321
 0.000166248
 0.000188318
 0.000489437
 0.000584814
 0.000565777
 0.000466107
 0.000554541
 0.000544783
 0.000469808
 0.000465716
 0.000519979
 0.000470585
 0.000495111
 0.000532368
 0.000529329
 0.000572345
 0.000527892
 0.000540892
 0.00055186
 0.000525483
 0.000491709
 0.000561615
 0.000504539
 0.00048739
 0.000503135
 0.000506425
 0.000486865
 0.000573437
 0.000504302
 0.000452408
 0.000550868
 0.000518031
 0.000558215
 0.000542769
 0.000545051
 0.000513775
 0.00048036
 0.000553578
 0.00054785
 0.000492526
 0.000547009
 0.000494077
 0.000540926
 0.000549174
 0.000520208
 0.000505333
 0.000567215
 0.000597475
 0.00047144
 0.000492373
 0.00054793
 0.000520232
 0.000521347
 0.000519764
 0.000559706
 0.00047595
 0.000540007
 0.000531797
 0.000543788
 0.000575939
 0.000483823
 0.000523591
 0.000526172
 0.000553452
 0.000432666
 0.000534191
 0.00056243
 0.000530283
 0.000470342
 0.000508122
 0.000518475
 0.000429643
 0.000519484
 0.00054916
 0.000521316
 0.000536925
 0.000550976
 0.00050431
 0.000595991
 0.000521829
 0.000499568
 0.000545071
 0.00056744
 0.000525696
 0.000486955
 0.000541314
 0.000547837
 0.000567085
 0.000571383
 0.000496176
 0.000511783
 0.000553771
 0.000522103
 0.000543156
 0.000514047
 0.000477865
 0.000519114
 0.000559575
 0.00058324
 0.000544408
 0.000543309
 0.000509892
 0.00180737
 0.00179422
 0.0017001
 0.00178796
 0.00170561
 0.00171794
 0.00174315
 0.00169409