# vtk DataFile Version 2.0
Three-D cube surface heat flux and Q display
ASCII
DATASET UNSTRUCTURED_GRID

POINTS 602 FLOAT 
 -0.5 -0.5 -0.5
 -0.4 -0.5 -0.5
 -0.3 -0.5 -0.5
 -0.2 -0.5 -0.5
 -0.1 -0.5 -0.5
 0 -0.5 -0.5
 0.1 -0.5 -0.5
 0.2 -0.5 -0.5
 0.3 -0.5 -0.5
 0.4 -0.5 -0.5
 0.5 -0.5 -0.5
 -0.5 -0.4 -0.5
 -0.4 -0.4 -0.5
 -0.3 -0.4 -0.5
 -0.2 -0.4 -0.5
 -0.1 -0.4 -0.5
 0 -0.4 -0.5
 0.1 -0.4 -0.5
 0.2 -0.4 -0.5
 0.3 -0.4 -0.5
 0.4 -0.4 -0.5
 0.5 -0.4 -0.5
 -0.5 -0.3 -0.5
 -0.4 -0.3 -0.5
 -0.3 -0.3 -0.5
 -0.2 -0.3 -0.5
 -0.1 -0.3 -0.5
 0 -0.3 -0.5
 0.1 -0.3 -0.5
 0.2 -0.3 -0.5
 0.3 -0.3 -0.5
 0.4 -0.3 -0.5
 0.5 -0.3 -0.5
 -0.5 -0.2 -0.5
 -0.4 -0.2 -0.5
 -0.3 -0.2 -0.5
 -0.2 -0.2 -0.5
 -0.1 -0.2 -0.5
 0 -0.2 -0.5
 0.1 -0.2 -0.5
 0.2 -0.2 -0.5
 0.3 -0.2 -0.5
 0.4 -0.2 -0.5
 0.5 -0.2 -0.5
 -0.5 -0.1 -0.5
 -0.4 -0.1 -0.5
 -0.3 -0.1 -0.5
 -0.2 -0.1 -0.5
 -0.1 -0.1 -0.5
 0 -0.1 -0.5
 0.1 -0.1 -0.5
 0.2 -0.1 -0.5
 0.3 -0.1 -0.5
 0.4 -0.1 -0.5
 0.5 -0.1 -0.5
 -0.5 0 -0.5
 -0.4 0 -0.5
 -0.3 0 -0.5
 -0.2 0 -0.5
 -0.1 0 -0.5
 0 0 -0.5
 0.1 0 -0.5
 0.2 0 -0.5
 0.3 0 -0.5
 0.4 0 -0.5
 0.5 0 -0.5
 -0.5 0.1 -0.5
 -0.4 0.1 -0.5
 -0.3 0.1 -0.5
 -0.2 0.1 -0.5
 -0.1 0.1 -0.5
 0 0.1 -0.5
 0.1 0.1 -0.5
 0.2 0.1 -0.5
 0.3 0.1 -0.5
 0.4 0.1 -0.5
 0.5 0.1 -0.5
 -0.5 0.2 -0.5
 -0.4 0.2 -0.5
 -0.3 0.2 -0.5
 -0.2 0.2 -0.5
 -0.1 0.2 -0.5
 0 0.2 -0.5
 0.1 0.2 -0.5
 0.2 0.2 -0.5
 0.3 0.2 -0.5
 0.4 0.2 -0.5
 0.5 0.2 -0.5
 -0.5 0.3 -0.5
 -0.4 0.3 -0.5
 -0.3 0.3 -0.5
 -0.2 0.3 -0.5
 -0.1 0.3 -0.5
 0 0.3 -0.5
 0.1 0.3 -0.5
 0.2 0.3 -0.5
 0.3 0.3 -0.5
 0.4 0.3 -0.5
 0.5 0.3 -0.5
 -0.5 0.4 -0.5
 -0.4 0.4 -0.5
 -0.3 0.4 -0.5
 -0.2 0.4 -0.5
 -0.1 0.4 -0.5
 0 0.4 -0.5
 0.1 0.4 -0.5
 0.2 0.4 -0.5
 0.3 0.4 -0.5
 0.4 0.4 -0.5
 0.5 0.4 -0.5
 -0.5 0.5 -0.5
 -0.4 0.5 -0.5
 -0.3 0.5 -0.5
 -0.2 0.5 -0.5
 -0.1 0.5 -0.5
 0 0.5 -0.5
 0.1 0.5 -0.5
 0.2 0.5 -0.5
 0.3 0.5 -0.5
 0.4 0.5 -0.5
 0.5 0.5 -0.5
 -0.5 -0.5 0.5
 -0.4 -0.5 0.5
 -0.3 -0.5 0.5
 -0.2 -0.5 0.5
 -0.1 -0.5 0.5
 0 -0.5 0.5
 0.1 -0.5 0.5
 0.2 -0.5 0.5
 0.3 -0.5 0.5
 0.4 -0.5 0.5
 0.5 -0.5 0.5
 -0.5 -0.4 0.5
 -0.4 -0.4 0.5
 -0.3 -0.4 0.5
 -0.2 -0.4 0.5
 -0.1 -0.4 0.5
 0 -0.4 0.5
 0.1 -0.4 0.5
 0.2 -0.4 0.5
 0.3 -0.4 0.5
 0.4 -0.4 0.5
 0.5 -0.4 0.5
 -0.5 -0.3 0.5
 -0.4 -0.3 0.5
 -0.3 -0.3 0.5
 -0.2 -0.3 0.5
 -0.1 -0.3 0.5
 0 -0.3 0.5
 0.1 -0.3 0.5
 0.2 -0.3 0.5
 0.3 -0.3 0.5
 0.4 -0.3 0.5
 0.5 -0.3 0.5
 -0.5 -0.2 0.5
 -0.4 -0.2 0.5
 -0.3 -0.2 0.5
 -0.2 -0.2 0.5
 -0.1 -0.2 0.5
 0 -0.2 0.5
 0.1 -0.2 0.5
 0.2 -0.2 0.5
 0.3 -0.2 0.5
 0.4 -0.2 0.5
 0.5 -0.2 0.5
 -0.5 -0.1 0.5
 -0.4 -0.1 0.5
 -0.3 -0.1 0.5
 -0.2 -0.1 0.5
 -0.1 -0.1 0.5
 0 -0.1 0.5
 0.1 -0.1 0.5
 0.2 -0.1 0.5
 0.3 -0.1 0.5
 0.4 -0.1 0.5
 0.5 -0.1 0.5
 -0.5 0 0.5
 -0.4 0 0.5
 -0.3 0 0.5
 -0.2 0 0.5
 -0.1 0 0.5
 0 0 0.5
 0.1 0 0.5
 0.2 0 0.5
 0.3 0 0.5
 0.4 0 0.5
 0.5 0 0.5
 -0.5 0.1 0.5
 -0.4 0.1 0.5
 -0.3 0.1 0.5
 -0.2 0.1 0.5
 -0.1 0.1 0.5
 0 0.1 0.5
 0.1 0.1 0.5
 0.2 0.1 0.5
 0.3 0.1 0.5
 0.4 0.1 0.5
 0.5 0.1 0.5
 -0.5 0.2 0.5
 -0.4 0.2 0.5
 -0.3 0.2 0.5
 -0.2 0.2 0.5
 -0.1 0.2 0.5
 0 0.2 0.5
 0.1 0.2 0.5
 0.2 0.2 0.5
 0.3 0.2 0.5
 0.4 0.2 0.5
 0.5 0.2 0.5
 -0.5 0.3 0.5
 -0.4 0.3 0.5
 -0.3 0.3 0.5
 -0.2 0.3 0.5
 -0.1 0.3 0.5
 0 0.3 0.5
 0.1 0.3 0.5
 0.2 0.3 0.5
 0.3 0.3 0.5
 0.4 0.3 0.5
 0.5 0.3 0.5
 -0.5 0.4 0.5
 -0.4 0.4 0.5
 -0.3 0.4 0.5
 -0.2 0.4 0.5
 -0.1 0.4 0.5
 0 0.4 0.5
 0.1 0.4 0.5
 0.2 0.4 0.5
 0.3 0.4 0.5
 0.4 0.4 0.5
 0.5 0.4 0.5
 -0.5 0.5 0.5
 -0.4 0.5 0.5
 -0.3 0.5 0.5
 -0.2 0.5 0.5
 -0.1 0.5 0.5
 0 0.5 0.5
 0.1 0.5 0.5
 0.2 0.5 0.5
 0.3 0.5 0.5
 0.4 0.5 0.5
 0.5 0.5 0.5
 -0.5 0.5 -0.4
 -0.4 0.5 -0.4
 -0.3 0.5 -0.4
 -0.2 0.5 -0.4
 -0.1 0.5 -0.4
 0 0.5 -0.4
 0.1 0.5 -0.4
 0.2 0.5 -0.4
 0.3 0.5 -0.4
 0.4 0.5 -0.4
 0.5 0.5 -0.4
 -0.5 0.5 -0.3
 -0.4 0.5 -0.3
 -0.3 0.5 -0.3
 -0.2 0.5 -0.3
 -0.1 0.5 -0.3
 0 0.5 -0.3
 0.1 0.5 -0.3
 0.2 0.5 -0.3
 0.3 0.5 -0.3
 0.4 0.5 -0.3
 0.5 0.5 -0.3
 -0.5 0.5 -0.2
 -0.4 0.5 -0.2
 -0.3 0.5 -0.2
 -0.2 0.5 -0.2
 -0.1 0.5 -0.2
 0 0.5 -0.2
 0.1 0.5 -0.2
 0.2 0.5 -0.2
 0.3 0.5 -0.2
 0.4 0.5 -0.2
 0.5 0.5 -0.2
 -0.5 0.5 -0.1
 -0.4 0.5 -0.1
 -0.3 0.5 -0.1
 -0.2 0.5 -0.1
 -0.1 0.5 -0.1
 0 0.5 -0.1
 0.1 0.5 -0.1
 0.2 0.5 -0.1
 0.3 0.5 -0.1
 0.4 0.5 -0.1
 0.5 0.5 -0.1
 -0.5 0.5 0
 -0.4 0.5 0
 -0.3 0.5 0
 -0.2 0.5 0
 -0.1 0.5 0
 0 0.5 0
 0.1 0.5 0
 0.2 0.5 0
 0.3 0.5 0
 0.4 0.5 0
 0.5 0.5 0
 -0.5 0.5 0.1
 -0.4 0.5 0.1
 -0.3 0.5 0.1
 -0.2 0.5 0.1
 -0.1 0.5 0.1
 0 0.5 0.1
 0.1 0.5 0.1
 0.2 0.5 0.1
 0.3 0.5 0.1
 0.4 0.5 0.1
 0.5 0.5 0.1
 -0.5 0.5 0.2
 -0.4 0.5 0.2
 -0.3 0.5 0.2
 -0.2 0.5 0.2
 -0.1 0.5 0.2
 0 0.5 0.2
 0.1 0.5 0.2
 0.2 0.5 0.2
 0.3 0.5 0.2
 0.4 0.5 0.2
 0.5 0.5 0.2
 -0.5 0.5 0.3
 -0.4 0.5 0.3
 -0.3 0.5 0.3
 -0.2 0.5 0.3
 -0.1 0.5 0.3
 0 0.5 0.3
 0.1 0.5 0.3
 0.2 0.5 0.3
 0.3 0.5 0.3
 0.4 0.5 0.3
 0.5 0.5 0.3
 -0.5 0.5 0.4
 -0.4 0.5 0.4
 -0.3 0.5 0.4
 -0.2 0.5 0.4
 -0.1 0.5 0.4
 0 0.5 0.4
 0.1 0.5 0.4
 0.2 0.5 0.4
 0.3 0.5 0.4
 0.4 0.5 0.4
 0.5 0.5 0.4
 -0.5 -0.5 -0.4
 -0.4 -0.5 -0.4
 -0.3 -0.5 -0.4
 -0.2 -0.5 -0.4
 -0.1 -0.5 -0.4
 0 -0.5 -0.4
 0.1 -0.5 -0.4
 0.2 -0.5 -0.4
 0.3 -0.5 -0.4
 0.4 -0.5 -0.4
 0.5 -0.5 -0.4
 -0.5 -0.5 -0.3
 -0.4 -0.5 -0.3
 -0.3 -0.5 -0.3
 -0.2 -0.5 -0.3
 -0.1 -0.5 -0.3
 0 -0.5 -0.3
 0.1 -0.5 -0.3
 0.2 -0.5 -0.3
 0.3 -0.5 -0.3
 0.4 -0.5 -0.3
 0.5 -0.5 -0.3
 -0.5 -0.5 -0.2
 -0.4 -0.5 -0.2
 -0.3 -0.5 -0.2
 -0.2 -0.5 -0.2
 -0.1 -0.5 -0.2
 0 -0.5 -0.2
 0.1 -0.5 -0.2
 0.2 -0.5 -0.2
 0.3 -0.5 -0.2
 0.4 -0.5 -0.2
 0.5 -0.5 -0.2
 -0.5 -0.5 -0.1
 -0.4 -0.5 -0.1
 -0.3 -0.5 -0.1
 -0.2 -0.5 -0.1
 -0.1 -0.5 -0.1
 0 -0.5 -0.1
 0.1 -0.5 -0.1
 0.2 -0.5 -0.1
 0.3 -0.5 -0.1
 0.4 -0.5 -0.1
 0.5 -0.5 -0.1
 -0.5 -0.5 0
 -0.4 -0.5 0
 -0.3 -0.5 0
 -0.2 -0.5 0
 -0.1 -0.5 0
 0 -0.5 0
 0.1 -0.5 0
 0.2 -0.5 0
 0.3 -0.5 0
 0.4 -0.5 0
 0.5 -0.5 0
 -0.5 -0.5 0.1
 -0.4 -0.5 0.1
 -0.3 -0.5 0.1
 -0.2 -0.5 0.1
 -0.1 -0.5 0.1
 0 -0.5 0.1
 0.1 -0.5 0.1
 0.2 -0.5 0.1
 0.3 -0.5 0.1
 0.4 -0.5 0.1
 0.5 -0.5 0.1
 -0.5 -0.5 0.2
 -0.4 -0.5 0.2
 -0.3 -0.5 0.2
 -0.2 -0.5 0.2
 -0.1 -0.5 0.2
 0 -0.5 0.2
 0.1 -0.5 0.2
 0.2 -0.5 0.2
 0.3 -0.5 0.2
 0.4 -0.5 0.2
 0.5 -0.5 0.2
 -0.5 -0.5 0.3
 -0.4 -0.5 0.3
 -0.3 -0.5 0.3
 -0.2 -0.5 0.3
 -0.1 -0.5 0.3
 0 -0.5 0.3
 0.1 -0.5 0.3
 0.2 -0.5 0.3
 0.3 -0.5 0.3
 0.4 -0.5 0.3
 0.5 -0.5 0.3
 -0.5 -0.5 0.4
 -0.4 -0.5 0.4
 -0.3 -0.5 0.4
 -0.2 -0.5 0.4
 -0.1 -0.5 0.4
 0 -0.5 0.4
 0.1 -0.5 0.4
 0.2 -0.5 0.4
 0.3 -0.5 0.4
 0.4 -0.5 0.4
 0.5 -0.5 0.4
 -0.5 -0.4 -0.4
 -0.5 -0.3 -0.4
 -0.5 -0.2 -0.4
 -0.5 -0.1 -0.4
 -0.5 0 -0.4
 -0.5 0.1 -0.4
 -0.5 0.2 -0.4
 -0.5 0.3 -0.4
 -0.5 0.4 -0.4
 -0.5 -0.4 -0.3
 -0.5 -0.3 -0.3
 -0.5 -0.2 -0.3
 -0.5 -0.1 -0.3
 -0.5 0 -0.3
 -0.5 0.1 -0.3
 -0.5 0.2 -0.3
 -0.5 0.3 -0.3
 -0.5 0.4 -0.3
 -0.5 -0.4 -0.2
 -0.5 -0.3 -0.2
 -0.5 -0.2 -0.2
 -0.5 -0.1 -0.2
 -0.5 0 -0.2
 -0.5 0.1 -0.2
 -0.5 0.2 -0.2
 -0.5 0.3 -0.2
 -0.5 0.4 -0.2
 -0.5 -0.4 -0.1
 -0.5 -0.3 -0.1
 -0.5 -0.2 -0.1
 -0.5 -0.1 -0.1
 -0.5 0 -0.1
 -0.5 0.1 -0.1
 -0.5 0.2 -0.1
 -0.5 0.3 -0.1
 -0.5 0.4 -0.1
 -0.5 -0.4 0
 -0.5 -0.3 0
 -0.5 -0.2 0
 -0.5 -0.1 0
 -0.5 0 0
 -0.5 0.1 0
 -0.5 0.2 0
 -0.5 0.3 0
 -0.5 0.4 0
 -0.5 -0.4 0.1
 -0.5 -0.3 0.1
 -0.5 -0.2 0.1
 -0.5 -0.1 0.1
 -0.5 0 0.1
 -0.5 0.1 0.1
 -0.5 0.2 0.1
 -0.5 0.3 0.1
 -0.5 0.4 0.1
 -0.5 -0.4 0.2
 -0.5 -0.3 0.2
 -0.5 -0.2 0.2
 -0.5 -0.1 0.2
 -0.5 0 0.2
 -0.5 0.1 0.2
 -0.5 0.2 0.2
 -0.5 0.3 0.2
 -0.5 0.4 0.2
 -0.5 -0.4 0.3
 -0.5 -0.3 0.3
 -0.5 -0.2 0.3
 -0.5 -0.1 0.3
 -0.5 0 0.3
 -0.5 0.1 0.3
 -0.5 0.2 0.3
 -0.5 0.3 0.3
 -0.5 0.4 0.3
 -0.5 -0.4 0.4
 -0.5 -0.3 0.4
 -0.5 -0.2 0.4
 -0.5 -0.1 0.4
 -0.5 0 0.4
 -0.5 0.1 0.4
 -0.5 0.2 0.4
 -0.5 0.3 0.4
 -0.5 0.4 0.4
 0.5 -0.4 -0.4
 0.5 -0.3 -0.4
 0.5 -0.2 -0.4
 0.5 -0.1 -0.4
 0.5 0 -0.4
 0.5 0.1 -0.4
 0.5 0.2 -0.4
 0.5 0.3 -0.4
 0.5 0.4 -0.4
 0.5 -0.4 -0.3
 0.5 -0.3 -0.3
 0.5 -0.2 -0.3
 0.5 -0.1 -0.3
 0.5 0 -0.3
 0.5 0.1 -0.3
 0.5 0.2 -0.3
 0.5 0.3 -0.3
 0.5 0.4 -0.3
 0.5 -0.4 -0.2
 0.5 -0.3 -0.2
 0.5 -0.2 -0.2
 0.5 -0.1 -0.2
 0.5 0 -0.2
 0.5 0.1 -0.2
 0.5 0.2 -0.2
 0.5 0.3 -0.2
 0.5 0.4 -0.2
 0.5 -0.4 -0.1
 0.5 -0.3 -0.1
 0.5 -0.2 -0.1
 0.5 -0.1 -0.1
 0.5 0 -0.1
 0.5 0.1 -0.1
 0.5 0.2 -0.1
 0.5 0.3 -0.1
 0.5 0.4 -0.1
 0.5 -0.4 0
 0.5 -0.3 0
 0.5 -0.2 0
 0.5 -0.1 0
 0.5 0 0
 0.5 0.1 0
 0.5 0.2 0
 0.5 0.3 0
 0.5 0.4 0
 0.5 -0.4 0.1
 0.5 -0.3 0.1
 0.5 -0.2 0.1
 0.5 -0.1 0.1
 0.5 0 0.1
 0.5 0.1 0.1
 0.5 0.2 0.1
 0.5 0.3 0.1
 0.5 0.4 0.1
 0.5 -0.4 0.2
 0.5 -0.3 0.2
 0.5 -0.2 0.2
 0.5 -0.1 0.2
 0.5 0 0.2
 0.5 0.1 0.2
 0.5 0.2 0.2
 0.5 0.3 0.2
 0.5 0.4 0.2
 0.5 -0.4 0.3
 0.5 -0.3 0.3
 0.5 -0.2 0.3
 0.5 -0.1 0.3
 0.5 0 0.3
 0.5 0.1 0.3
 0.5 0.2 0.3
 0.5 0.3 0.3
 0.5 0.4 0.3
 0.5 -0.4 0.4
 0.5 -0.3 0.4
 0.5 -0.2 0.4
 0.5 -0.1 0.4
 0.5 0 0.4
 0.5 0.1 0.4
 0.5 0.2 0.4
 0.5 0.3 0.4
 0.5 0.4 0.4

CELLS 600 3000
 4 0 1 12 11
 4 1 2 13 12
 4 2 3 14 13
 4 3 4 15 14
 4 4 5 16 15
 4 5 6 17 16
 4 6 7 18 17
 4 7 8 19 18
 4 8 9 20 19
 4 9 10 21 20
 4 11 12 23 22
 4 12 13 24 23
 4 13 14 25 24
 4 14 15 26 25
 4 15 16 27 26
 4 16 17 28 27
 4 17 18 29 28
 4 18 19 30 29
 4 19 20 31 30
 4 20 21 32 31
 4 22 23 34 33
 4 23 24 35 34
 4 24 25 36 35
 4 25 26 37 36
 4 26 27 38 37
 4 27 28 39 38
 4 28 29 40 39
 4 29 30 41 40
 4 30 31 42 41
 4 31 32 43 42
 4 33 34 45 44
 4 34 35 46 45
 4 35 36 47 46
 4 36 37 48 47
 4 37 38 49 48
 4 38 39 50 49
 4 39 40 51 50
 4 40 41 52 51
 4 41 42 53 52
 4 42 43 54 53
 4 44 45 56 55
 4 45 46 57 56
 4 46 47 58 57
 4 47 48 59 58
 4 48 49 60 59
 4 49 50 61 60
 4 50 51 62 61
 4 51 52 63 62
 4 52 53 64 63
 4 53 54 65 64
 4 55 56 67 66
 4 56 57 68 67
 4 57 58 69 68
 4 58 59 70 69
 4 59 60 71 70
 4 60 61 72 71
 4 61 62 73 72
 4 62 63 74 73
 4 63 64 75 74
 4 64 65 76 75
 4 66 67 78 77
 4 67 68 79 78
 4 68 69 80 79
 4 69 70 81 80
 4 70 71 82 81
 4 71 72 83 82
 4 72 73 84 83
 4 73 74 85 84
 4 74 75 86 85
 4 75 76 87 86
 4 77 78 89 88
 4 78 79 90 89
 4 79 80 91 90
 4 80 81 92 91
 4 81 82 93 92
 4 82 83 94 93
 4 83 84 95 94
 4 84 85 96 95
 4 85 86 97 96
 4 86 87 98 97
 4 88 89 100 99
 4 89 90 101 100
 4 90 91 102 101
 4 91 92 103 102
 4 92 93 104 103
 4 93 94 105 104
 4 94 95 106 105
 4 95 96 107 106
 4 96 97 108 107
 4 97 98 109 108
 4 99 100 111 110
 4 100 101 112 111
 4 101 102 113 112
 4 102 103 114 113
[...]
CELL_DATA 600
FIELD DOMAIN 2
SurfaceElement_HEAT_FLUX_q 1 600 FLOAT
 0.922489
 0.920718
 0.911243
 0.906304
 0.909342
 0.915105
 0.90914
 0.909665
 0.915323
 0.924391
 0.919247
 0.917923
 0.911386
 0.922439
 0.918059
 0.906436
 0.918293
 0.920643
 0.925554
 0.925401
 0.924781
 0.924193
 0.919266
 0.914341
 0.913863
 0.90887
 0.914049
 0.914107
 0.915505
 0.927193
 0.924332
 0.914247
 0.908409
 0.921444
 0.903162
 0.919814
 0.913449
 0.915537
 0.921781
 0.934145
 0.921159
 0.921839
 0.911923
 0.919369
 0.915704
 0.909152
 0.917393
 0.921089
 0.91606
 0.925558
 0.92384
 0.915036
 0.914797
 0.919454
 0.917803
 0.919694
 0.918241
 0.920968
 0.927189
 0.925768
 0.920788
 0.924996
 0.916917
 0.911357
 0.905764
 0.911941
 0.907484
 0.906814
 0.923701
 0.919418
 0.928098
 0.921402
 0.917454
 0.911737
 0.910426
 0.914694
 0.912952
 0.925949
 0.925191
 0.918619
 0.923614
 0.921322
 0.914356
 0.905449
 0.905069
 0.91259
 0.91082
 0.913297
 0.919437
 0.925904
 0.92387
 0.913173
 0.916245
 0.911649
 0.914606
 0.917206
 0.916304
 0.91884
 0.914531
 0.92778
 0.923446
 0.915769
 0.9171
 0.912721
 0.917436
 0.911284
 0.915834
 0.91483
 0.914078
 0.915689
 0.919885
 0.92032
 0.914881
 0.908215
 0.913755
 0.920014
 0.908752
 0.916337
 0.915985
 0.92766
 0.915369
 0.923381
 0.909339
 0.917692
 0.911221
 0.907536
 0.905865
 0.912932
 0.914673
 0.924823
 0.920748
 0.920659
 0.913372
 0.915461
 0.9176
 0.91024
 0.918223
 0.914539
 0.917563
 0.926422
 0.927198
 0.920645
 0.911156
 0.910061
 0.909068
 0.916208
 0.921385
 0.906493
 0.909527
 0.92652
 0.922659
 0.91569
 0.91638
 0.923938
 0.908798
 0.91366
 0.913515
 0.92146
 0.918237
 0.912154
 0.922535
 0.925913
 0.914487
 0.914272
 0.911544
 0.914693
 0.913966
 0.917751
 0.920927
 0.922214
 0.921139
 0.919667
 0.915165
 0.90514
 0.909642
 0.910545
 0.917397
 0.917092
 0.915457
 0.922522
 0.922808
 0.919198
 0.913921
 0.916267
 0.907497
 0.905724
 0.910595
 0.91315
 0.921884
 0.917669
 0.923187
 0.918046
 0.922223
 0.915215
 0.917636
 0.908525
 0.907536
 0.914588
 0.913982
 0.919557
 0
 0
 0
 0
 0
 0
 0
 0
 0
 0
 0
 0
 0
 0
 0
 0
 0
 0
 0
 0
 0
 0
 0
 0
 0
 0
 0
 0
 0
 0
 0
 0
 0
 0
 0
 0
 0
 0
 0
 0
 0
 0
 0
 0
 0
 0
 0
 0
 0
 0
 0
 0
 0
 0
 0
 0
 0
 0
 0
 0
 0
 0
 0
 0
 0
 0
 0
 0
 0
 0
 0
 0
 0
 0
 0
 0
 0
 0
 0
 0
 0
 0
 0
 0
 0
 0
 0
 0
 0
 0
 0
 0
 0
 0
 0
 0
 0
 0
 0
 0
 0
 0
 0
 0
 0
 0
 0
 0
 0
 0
 0
 0
 0
 0
 0
 0
 0
 0
 0
 0
 0
 0
 0
 0
 0
 0
 0
 0
 0
 0
 0
 0
 0
 0
 0
 0
 0
 0
 0
 0
 0
 0
 0
 0
 0
 0
 0
 0
 0
 0
 0
 0
 0
 0
 0
 0
 0
 0
 0
 0
 0
 0
 0
 0
 0
 0
 0
 0
 0
 0
 0
 0
 0
 0
 0
 0
 0
 0
 0
 0
 0
 0
 0
 0
 0
 0
 0
 0
 0
 0
 0
 0
 0
 0
 0
 0
 0
 0
 0
 0
 -1.00175
 -1.00293
 -1.00347
 -0.984589
 -0.997404
 -0.983826
 -0.932483
 -0.983984
 -0.952596
 -0.982278
 -0.949795
 -0.904193
 -0.912944
 -0.965992
 -0.922654
 -0.946195
 -0.939359
 -0.881656
 -0.97684
 -0.957341
 -0.91444
 -0.893465
 -0.905222
 -0.926276
 -0.901905
 -0.874847
 -0.934052
 -0.9461
 -0.91264
 -0.873993
 -0.841731
 -0.912674
 -0.903074
 -0.872234
 -0.851119
 -0.893346
 -0.949206
 -0.869242
 -0.86026
 -0.875183
 -0.90343
 -0.876629
 -0.899119
 -0.887496
 -0.877543
 -0.806721
 -0.891592
 -0.914231
 -0.869669
 -0.848181
 -0.942071
 -0.82728
 -0.87401
 -0.949098
 -0.871313
 -0.884553
 -0.911257
 -0.914806
 -0.890278
 -0.868285
 -0.905441
 -0.862284
 -0.819882
 -0.894741
 -0.979029
 -0.840421
 -0.925864
 -0.86594
 -0.941141
 -0.894939
 -0.883974
 -0.948307
 -0.955974
 -0.94578
 -0.885866
 -0.891443
 -0.953525
 -0.900304
 -0.893195
 -0.899945
 -0.891721
 -0.931842
 -0.934116
 -0.94651
 -1.02425
 -0.880399
 -0.941028
 -0.898057
 -0.951282
 -0.907909
 -0.982532
 -0.988802
 -0.99829
 -0.922501
 -0.972673
 -0.967518
 -0.96961
 -1.07708
 -0.99447
 -0.974123
 -0.941633
 -0.970526
 -0.936494
 -0.942112
 -0.973225
 -0.935872
 -0.988725
 -1.02701
 -0.986909
 -1.0071
 -0.957861
 -0.934963
 -0.936485
 -0.965392
 -0.980341
 -0.93776
 -0.964104
 -0.986658
 -0.895366
 -0.953813
 -0.899483
 -0.888839
 -0.935758
 -0.854775
 -0.874262
 -0.896102
 -0.954806
 -0.929431
 -0.927406
 -0.909923
 -0.882348
 -0.868869
 -0.87702
 -0.926367
 -0.93721
 -0.844908
 -0.878982
 -0.87106
 -0.839808
 -0.872639
 -0.911158
 -0.844908
 -0.87127
 -0.871643
 -0.855792
 -0.933948
 -0.913391
 -0.874971
 -0.8191
 -0.903058
 -0.900756
 -0.907099
 -0.895724
 -0.839359
 -0.81882
 -0.902323
 -0.85571
 -0.906036
 -0.909033
 -0.867958
 -0.862175
 -0.897264
 -0.863009
 -0.850991
 -0.86363
 -0.871251
 -0.857585
 -0.867332
 -0.922119
 -0.867407
 -0.946724
 -0.933914
 -0.943135
 -0.95709
 -0.897158
 -0.932489
 -0.927952
 -0.910478
 -0.879572
 -0.920312
 -0.92326
 -0.976643
 -0.927151
 -0.97549
 -0.927416
 -0.935776
 -0.887044
 -0.989667
 -0.942479
 -0.930601
 -0.973417
 -1.02799
 -1.04305
 -0.991521
 -0.943909
 -0.999771
 -0.933937
 -0.990477
 -1.00132
 -0.97665

SurfaceElement_HEAT_Q 1 600 FLOAT 
 0.00922489
 0.00920718
 0.00911243
 0.00906304
 0.00909342
 0.00915105
 0.0090914
 0.00909665
 0.00915323
 0.00924391
 0.00919247
 0.00917923
 0.00911386
 0.00922439
 0.00918059
 0.00906436
 0.00918293
 0.00920643
 0.00925554
 0.00925401
 0.00924781
 0.00924193
 0.00919266
 0.00914341
 0.00913863
 0.0090887
 0.00914049
 0.00914107
 0.00915505
 0.00927193
 0.00924332
 0.00914247
 0.00908409
 0.00921444
 0.00903162
 0.00919814
 0.00913449
 0.00915537
 0.00921781
 0.00934145
 0.00921159
 0.00921839
 0.00911923
 0.00919369
 0.00915704
 0.00909152
 0.00917393
 0.00921089
 0.0091606
 0.00925558
 0.0092384
 0.00915036
 0.00914797
 0.00919454
 0.00917803
 0.00919694
 0.00918241
 0.00920968
 0.00927189
 0.00925768
 0.00920788
 0.00924996
 0.00916917
 0.00911357
 0.00905764
 0.00911941
 0.00907484
 0.00906814
 0.00923701
 0.00919418
 0.00928098
 0.00921402
 0.00917454
 0.00911737
 0.00910426
 0.00914694
 0.00912952
 0.00925949
 0.00925191
 0.00918619
 0.00923614
 0.00921322
 0.00914356
 0.00905449
 0.00905069
 0.0091259
 0.0091082
 0.00913297
 0.00919437
 0.00925904
 0.0092387
 0.00913173
 0.00916245
 0.00911649
 0.00914606
 0.00917206
 0.00916304
 0.0091884
 0.00914531
 0.0092778
 0.00923446
 0.00915769
 0.009171
 0.00912721
 0.00917436
 0.00911284
 0.00915834
 0.0091483
 0.00914078
 0.00915689
 0.00919885
 0.0092032
 0.00914881
 0.00908215
 0.00913755
 0.00920014
 0.00908752
 0.00916337
 0.00915985
 0.0092766
 0.00915369
 0.00923381
 0.00909339
 0.00917692
 0.00911221
 0.00907536
 0.00905865
 0.00912932
 0.00914673
 0.00924823
 0.00920748
 0.00920659
 0.00913372
 0.00915461
 0.009176
 0.0091024
 0.00918223
 0.00914539
 0.00917563
 0.00926422
 0.00927198
 0.00920645
 0.00911156
 0.00910061
 0.00909068
 0.00916208
 0.00921385
 0.00906493
 0.00909527
 0.0092652
 0.00922659
 0.0091569
 0.0091638
 0.00923938
 0.00908798
 0.0091366
 0.00913515
 0.0092146
 0.00918237
 0.00912154
 0.00922535
 0.00925913
 0.00914487
 0.00914272
 0.00911544
 0.00914693
 0.00913966
 0.00917751
 0.00920927
 0.00922214
 0.00921139
 0.00919667
 0.00915165
 0.0090514
 0.00909642
 0.00910545
 0.00917397
 0.00917092
 0.00915457
 0.00922522
 0.00922808
 0.00919198
 0.00913921
 0.00916267
 0.00907497
 0.00905724
 0.00910595
 0.0091315
 0.00921884
 0.00917669
 0.00923187
 0.00918046
 0.00922223
 0.00915215
 0.00917636
 0.00908525
 0.00907536
 0.00914588
 0.00913982
 0.00919557
 0
 0
 0
 0
 0
 0
 0
 0
 0
 0
 0
 0
 0
 0
 0
 0
 0
 0
 0
 0
 0
 0
 0
 0
 0
 0
 0
 0
 0
 0
 0
 0
 0
 0
 0
 0
 0
 0
 0
 0
 0
 0
 0
 0
 0
 0
 0
 0
 0
 0
 0
 0
 0
 0
 0
 0
 0
 0
 0
 0
 0
 0
 0
 0
 0
 0
 0
 0
 0
 0
 0
 0
 0
 0
 0
 0
 0
 0
 0
 0
 0
 0
 0
 0
 0
 0
 0
 0
 0
 0
 0
 0
 0
 0
 0
 0
 0
 0
 0
 0
 0
 0
 0
 0
 0
 0
 0
 0
 0
 0
 0
 0
 0
 0
 0
 0
 0
 0
 0
 0
 0
 0
 0
 0
 0
 0
 0
 0
 0
 0
 0
 0
 0
 0
 0
 0
 0
 0
 0
 0
 0
 0
 0
 0
 0
 0
 0
 0
 0
 0
 0
 0
 0
 0
 0
 0
 0
 0
 0
 0
 0
 0
 0
 0
 0
 0
 0
 0
 0
 0
 0
 0
 0
 0
 0
 0
 0
 0
 0
 0
 0
 0
 0
 0
 0
 0
 0
 0
 0
 0
 0
 0
 0
 0
 0
 0
 0
 0
 0
 0
 -0.0100175
 -0.0100293
 -0.0100347
 -0.00984589
 -0.00997404
 -0.00983826
 -0.00932483
 -0.00983984
 -0.00952596
 -0.00982278
 -0.00949795
 -0.00904193
 -0.00912944
 -0.00965992
 -0.00922654
 -0.00946195
 -0.00939359
 -0.00881656
 -0.0097684
 -0.00957341
 -0.0091444
 -0.00893465
 -0.00905222
 -0.00926276
 -0.00901905
 -0.00874847
 -0.00934052
 -0.009461
 -0.0091264
 -0.00873993
 -0.00841731
 -0.00912674
 -0.00903074
 -0.00872234
 -0.00851119
 -0.00893346
 -0.00949206
 -0.00869242
 -0.0086026
 -0.00875183
 -0.0090343
 -0.00876629
 -0.00899119
 -0.00887496
 -0.00877543
 -0.00806721
 -0.00891592
 -0.00914231
 -0.00869669
 -0.00848181
 -0.00942071
 -0.0082728
 -0.0087401
 -0.00949098
 -0.00871313
 -0.00884553
 -0.00911257
 -0.00914806
 -0.00890278
 -0.00868285
 -0.00905441
 -0.00862284
 -0.00819882
 -0.00894741
 -0.00979029
 -0.00840421
 -0.00925864
 -0.0086594
 -0.00941141
 -0.00894939
 -0.00883974
 -0.00948307
 -0.00955974
 -0.0094578
 -0.00885866
 -0.00891443
 -0.00953525
 -0.00900304
 -0.00893195
 -0.00899945
 -0.00891721
 -0.00931842
 -0.00934116
 -0.0094651
 -0.0102425
 -0.00880399
 -0.00941028
 -0.00898057
 -0.00951282
 -0.00907909
 -0.00982532
 -0.00988802
 -0.0099829
 -0.00922501
 -0.00972673
 -0.00967518
 -0.0096961
 -0.0107708
 -0.0099447
 -0.00974123
 -0.00941633
 -0.00970526
 -0.00936494
 -0.00942112
 -0.00973225
 -0.00935872
 -0.00988725
 -0.0102701
 -0.00986909
 -0.010071
 -0.00957861
 -0.00934963
 -0.00936485
 -0.00965392
 -0.00980341
 -0.0093776
 -0.00964104
 -0.00986658
 -0.00895366
 -0.00953813
 -0.00899483
 -0.00888839
 -0.00935758
 -0.00854775
 -0.00874262
 -0.00896102
 -0.00954806
 -0.00929431
 -0.00927406
 -0.00909923
 -0.00882348
 -0.00868869
 -0.0087702
 -0.00926367
 -0.0093721
 -0.00844908
 -0.00878982
 -0.0087106
 -0.00839808
 -0.00872639
 -0.00911158
 -0.00844908
 -0.0087127
 -0.00871643
 -0.00855792
 -0.00933948
 -0.00913391
 -0.00874971
 -0.008191
 -0.00903058
 -0.00900756
 -0.00907099
 -0.00895724
 -0.00839359
 -0.0081882
 -0.00902323
 -0.0085571
 -0.00906036
 -0.00909033
 -0.00867958
 -0.00862175
 -0.00897264
 -0.00863009
 -0.00850991
 -0.0086363
 -0.00871251
 -0.00857585
 -0.00867332
 -0.00922119
 -0.00867407
 -0.00946724
 -0.00933914
 -0.00943135
 -0.0095709
 -0.00897158
 -0.00932489
 -0.00927952
 -0.00910478
 -0.00879572
 -0.00920312
 -0.0092326
 -0.00976643
 -0.00927151
 -0.0097549
 -0.00927416
 -0.00935776
 -0.00887044
 -0.00989667
 -0.00942479
 -0.00930601
 -0.00973417
 -0.0102799
 -0.0104305
 -0.00991521
 -0.00943909
 -0.00999771
 -0.00933937
 -0.00990477
 -0.0100132
 -0.0097665
